/*--------------------------------*- C++ -*----------------------------------*\
| =========                 |                                                 |
| \\      /  F ield         | foam-extend: Open Source CFD                    |
|  \\    /   O peration     | Version:     3.2                                |
|   \\  /    A nd           | Web:         http://www.foam-extend.org         |
|    \\/     M anipulation  | For copyright notice see file Copyright         |
\*---------------------------------------------------------------------------*/
FoamFile
{
    version     2.0;
    format      ascii;
    class       volScalarField;
    location    "0";
    object      epsilon;
}
// * * * * * * * * * * * * * * * * * * * * * * * * * * * * * * * * * * * * * //

dimensions      [0 2 -3 0 0 0 0];

internalField   nonuniform List<scalar> 
50432
(
0.001133321466
0.001175935513
0.001258426962
0.001376680179
0.001528621454
0.00171212016
0.001924273391
0.002163300314
0.00242552526
0.002705412436
0.002995922968
0.003280023081
0.003481346081
0.003680786615
0.003964649928
0.004290568775
0.004651367402
0.005042968632
0.005462628877
0.005911623533
0.006386632326
0.006891732653
0.00742333705
0.007986610121
0.008578780697
0.00920418383
0.00986288866
0.01055533942
0.01128806461
0.01205864493
0.01286927887
0.01372608807
0.01462960404
0.01558144554
0.01658498162
0.01764349825
0.01876197383
0.01994435913
0.02119278886
0.02251211849
0.02390634041
0.02538047649
0.02693937112
0.02858901061
0.03033654505
0.03219277588
0.0341591818
0.03624318211
0.03845043239
0.04079544887
0.04329836015
0.04595002997
0.04876976022
0.05178951285
0.05497872578
0.05842302949
0.06206300612
0.0659948341
0.07015843727
0.07467518523
0.07949159964
0.08463684027
0.09024656016
0.09625592256
0.1026973122
0.1096425926
0.1172392899
0.1254256059
0.1342602049
0.1437926835
0.1540775813
0.1651334981
0.1769841362
0.1895953836
0.2028736517
0.2166718357
0.230752284
0.2448887265
0.2584039118
0.2705720473
0.2809177617
0.2889976953
0.2929008789
0.2945961449
0.2942320238
0.2948190835
0.298050418
0.3085319474
0.3261666408
0.35101257
0.3703227903
0.385510777
0.003490697818
0.003621951629
0.00387603022
0.004240257193
0.004708245396
0.005273432375
0.005926876998
0.0066630942
0.007470762699
0.008332831922
0.009227621716
0.01010266704
0.0107227539
0.01133704266
0.01221135862
0.01321520814
0.01432648946
0.01553264465
0.01682522327
0.01820815364
0.01967120909
0.02122694828
0.02286432158
0.02459923628
0.02642315704
0.02834943604
0.03037828627
0.03251107598
0.03476791335
0.03714134675
0.03963814773
0.04227717123
0.04506005439
0.0479917831
0.05108273416
0.0543430286
0.05778800022
0.06142981758
0.06527505572
0.06933866979
0.07363295659
0.0781733838
0.08297487237
0.08805586056
0.09343837104
0.09915567288
0.1052123206
0.111631166
0.1184296287
0.1256524196
0.1333615359
0.1415288373
0.1502137749
0.1595147934
0.1693377598
0.179946421
0.1911577664
0.2032680315
0.216092178
0.2300040315
0.2448388756
0.2606865241
0.2779647965
0.2964739917
0.3163138567
0.3377057352
0.3611040167
0.386318359
0.4135294516
0.4428900552
0.4745681547
0.5086210392
0.5451217124
0.5839651076
0.6248629666
0.6673621977
0.7107308197
0.7542719071
0.7958994853
0.8333780693
0.8652434879
0.890130166
0.9021522048
0.9073737253
0.9062522103
0.9080603894
0.9180130927
0.9502968295
1.004612738
1.081139685
1.140616317
1.187396223
0.006036805104
0.006263795156
0.006703198111
0.007333091434
0.008142429201
0.009119862314
0.01024992801
0.01152314041
0.01291992053
0.01441078114
0.01595822864
0.01747153008
0.01854390694
0.01960625656
0.02111829666
0.0228543518
0.02477619927
0.02686212139
0.02909750401
0.03148914073
0.03401934561
0.03670983752
0.03954150729
0.04254186496
0.04569614948
0.04902745215
0.05253614126
0.05622458308
0.06012755264
0.06423216313
0.06855012523
0.07311404665
0.07792675866
0.08299688381
0.08834236776
0.09398071378
0.09993844009
0.106236591
0.1128865374
0.1199141426
0.1273406727
0.1351928775
0.1434965612
0.152283611
0.1615921127
0.1714796019
0.1819539551
0.1930546922
0.2048119387
0.2173030173
0.2306351459
0.244759659
0.259779371
0.2758645318
0.2928523482
0.3111989434
0.3305878195
0.3515312852
0.3737093359
0.3977684647
0.4234238114
0.4508306997
0.4807117059
0.5127214672
0.5470324859
0.5840275534
0.6244924899
0.6680981178
0.7151569213
0.7659330843
0.8207171198
0.8796081031
0.9427322867
1.009907969
1.080636636
1.154134712
1.229136312
1.304436172
1.376426814
1.441242195
1.496350179
1.539389145
1.560180033
1.569210119
1.567270573
1.570397634
1.587609817
1.64344124
1.737375054
1.869720585
1.972579342
2.053480409
0.008786753076
0.009117143987
0.009756708326
0.01067353718
0.01185155286
0.01327423643
0.01491908135
0.01677228065
0.01880533651
0.02097532939
0.02322768619
0.02543034238
0.02699121945
0.02853750157
0.03073832183
0.03326520279
0.03606251012
0.03909863308
0.04235230033
0.04583340018
0.04951619019
0.05343228283
0.05755386414
0.0619209758
0.06651213267
0.07136094483
0.07646794833
0.08183658737
0.08751747803
0.09349186319
0.0997767881
0.1064197143
0.1134247627
0.1208044837
0.1285849979
0.1367917817
0.1454634332
0.154630583
0.1643097818
0.1745386745
0.1853482145
0.1967773369
0.2088636007
0.2216534183
0.2352022252
0.2495937658
0.2648395048
0.2809969647
0.2981099938
0.3162911378
0.3356964558
0.3562551133
0.3781167601
0.4015291999
0.4262554823
0.4529595086
0.4811806063
0.5116644563
0.5439452823
0.5789640746
0.6163062105
0.6561977684
0.6996904799
0.7462816591
0.7962223883
0.8500698321
0.9089677754
0.9724370905
1.040932608
1.114838854
1.194578681
1.280296294
1.37217546
1.469951704
1.572899426
1.679878107
1.789045212
1.898646444
2.003431009
2.097771763
2.177983107
2.240627629
2.270889397
2.284032961
2.281209894
2.285761426
2.310814281
2.392078612
2.528802128
2.721435067
2.87114911
2.988903068
0.01175686116
0.01219893118
0.01305468177
0.01428141813
0.015857628
0.01776120865
0.01996204589
0.02244166569
0.02516193737
0.02806543366
0.03107913462
0.03402633511
0.03611482159
0.03818377973
0.04112852371
0.04450954379
0.04825240007
0.05231479669
0.05666827219
0.06132605729
0.0662537081
0.07149352274
0.07700828557
0.0828515732
0.08899463804
0.0954824511
0.1023157296
0.109499082
0.1171002337
0.1250940872
0.1335034494
0.1423918249
0.1517647276
0.1616389503
0.1720494425
0.1830302925
0.1946331453
0.2068989854
0.2198499577
0.2335364321
0.247999825
0.2632922321
0.2794639082
0.2965769544
0.314705544
0.3339617293
0.35436085
0.3759798725
0.3988774668
0.4232042215
0.4491689466
0.4766768646
0.5059282096
0.5372545485
0.5703388365
0.6060693875
0.6438298122
0.6846178473
0.7278102741
0.7746661577
0.824630724
0.8780064709
0.9362006373
0.998540619
1.065362369
1.137411386
1.216218078
1.301141362
1.39278981
1.491677929
1.5983715
1.713063478
1.835999741
1.966826421
2.104572647
2.247712381
2.393780272
2.540429036
2.680632996
2.806862917
2.91418739
2.998007082
3.038497966
3.056084333
3.05230701
3.058397055
3.091918305
3.200651696
3.383590648
3.641337588
3.841658138
3.999215421
0.01496475533
0.01552744545
0.01661669011
0.0181781451
0.02018442847
0.0226074067
0.02540874885
0.02856494021
0.03202744602
0.03572316982
0.03955916796
0.04331052078
0.04596885694
0.04860233639
0.05235056243
0.05665410379
0.06141820942
0.06658904292
0.07213037702
0.07805905249
0.08433122732
0.09100074081
0.0980202229
0.1054578688
0.1132770869
0.1215351189
0.1302328775
0.1393762288
0.1490513771
0.159226377
0.1699302585
0.1812438534
0.1931741802
0.2057426135
0.2189936392
0.2329706464
0.2477393718
0.2633519824
0.2798366656
0.2972575349
0.315667307
0.3351322925
0.355716458
0.3774988491
0.4005738778
0.4250841699
0.4510492508
0.4785670872
0.5077123574
0.5386767387
0.5717260155
0.6067395499
0.6439722104
0.6838460331
0.7259574663
0.7714372034
0.819500671
0.8714178416
0.9263954491
0.9860360985
1.049633644
1.11757312
1.191645736
1.270995365
1.356049627
1.44775743
1.54806676
1.656161611
1.772816608
1.898686641
2.034491868
2.180477889
2.336957674
2.503480798
2.678811487
2.861007319
3.046930264
3.233592574
3.412051597
3.572723724
3.709331994
3.816022137
3.867561078
3.889945937
3.885137959
3.892889692
3.935557313
4.07395893
4.306813313
4.634887264
4.889865866
5.090413117
0.01842947267
0.0191224397
0.0204638719
0.02238684301
0.02485763145
0.0278415901
0.03129151343
0.03517844249
0.03944260551
0.04399398234
0.04871811055
0.05333799593
0.05661180379
0.05985499998
0.06447103465
0.0697709541
0.07563807003
0.08200608157
0.08883037392
0.09613168691
0.103856028
0.1120697017
0.1207143705
0.1298740184
0.1395035823
0.1496735564
0.160385065
0.1716453321
0.1835605206
0.196091289
0.2092733884
0.2232063651
0.2378988627
0.2533772045
0.269696176
0.286909212
0.3050972688
0.3243245916
0.3446258937
0.3660801325
0.38875223
0.4127238493
0.4380737669
0.4648993296
0.493316808
0.5235018493
0.5554784996
0.5893674074
0.6252605409
0.6633939555
0.7040949713
0.7472150197
0.7930679778
0.8421735936
0.8940348831
0.9500443235
1.009235693
1.073172995
1.140879301
1.214328261
1.292650238
1.376319413
1.467541703
1.565262767
1.67000923
1.782949697
1.90648316
2.039604689
2.183268253
2.338280365
2.505527918
2.685313375
2.878022167
3.083099584
3.299023738
3.523402489
3.752371273
3.982250604
4.202027381
4.399899147
4.568135669
4.699527264
4.762998766
4.790566283
4.784645137
4.794191591
4.84673784
5.017182913
5.303948944
5.707980268
6.021992831
6.268971816
0.02217157437
0.02300524826
0.02461905807
0.02693248817
0.02990496984
0.03349482086
0.0376452506
0.04232142004
0.04745142072
0.05292695395
0.0586103157
0.06416826812
0.06810682218
0.07200854888
0.07756186871
0.08393793602
0.09099636897
0.09865740432
0.1068673682
0.1156512117
0.1249439791
0.134825438
0.1452254055
0.1562449187
0.1678297641
0.1800647499
0.1929512288
0.2064978914
0.2208324572
0.2359075963
0.2517663189
0.2685283845
0.2862041916
0.3048254084
0.3244579447
0.3451660851
0.3670472242
0.3901786519
0.4146021305
0.4404126493
0.4676883128
0.4965273659
0.5270245806
0.5592970698
0.5934847129
0.6297988225
0.6682683269
0.7090383724
0.7522196014
0.7980960001
0.8470613512
0.8989369191
0.9541003135
1.013176817
1.075568534
1.142950683
1.214160851
1.291080613
1.372534675
1.460897436
1.555122678
1.655780866
1.765525829
1.883089141
2.009104358
2.144977369
2.293594284
2.45374612
2.626580549
2.813067847
3.014274992
3.230565859
3.462404143
3.709122499
3.968890021
4.238828844
4.514289706
4.790846001
5.05524842
5.293298018
5.495694941
5.65376558
5.730124962
5.763290058
5.756166625
5.767651485
5.830867242
6.035921162
6.380914993
6.866984818
7.244757585
7.541885617
0.02621326775
0.02719891345
0.02910690735
0.0318420565
0.03535639682
0.03960064779
0.04450766632
0.05003626251
0.0561014196
0.06257509694
0.06929448821
0.07586560907
0.08052212874
0.08513510773
0.09170075152
0.09923912281
0.1075842493
0.1166418276
0.1263483996
0.1367334646
0.1477202261
0.1594029927
0.1716987877
0.1847270663
0.1984237326
0.2128890544
0.2281246311
0.2441407375
0.2610883753
0.2789115867
0.2976612224
0.317478873
0.3383768325
0.3603925421
0.3836039263
0.4080869883
0.4339568768
0.4613049712
0.4901806466
0.520696208
0.5529439979
0.5870401702
0.6230967731
0.6612522684
0.7016720342
0.7446059035
0.7900880783
0.8382901636
0.8893429711
0.9435822552
1.001473582
1.062805634
1.128024856
1.197870515
1.271635722
1.351301075
1.435492264
1.526433858
1.622736317
1.727206873
1.838608593
1.957615931
2.087366486
2.226360611
2.375347352
2.535988883
2.711697423
2.901043606
3.105384312
3.325866692
3.563752223
3.819471115
4.093571587
4.385264645
4.692385623
5.011532046
5.337207129
5.664177334
5.976778112
6.25822217
6.497514367
6.684399967
6.774679028
6.813889846
6.80546787
6.819046325
6.893785787
7.136219329
7.544102663
8.11877897
8.565416567
8.916708564
0.03057853806
0.03172832239
0.03395405268
0.03714468359
0.04124426363
0.04619530563
0.05191948525
0.05836875325
0.06544393513
0.07299566774
0.08083403278
0.08849943609
0.09393140151
0.09931257546
0.1069715896
0.1157653186
0.125500151
0.1360660791
0.1473890772
0.1595035572
0.1723199335
0.18594822
0.2002916219
0.2154894873
0.2314670462
0.2483412642
0.2661140068
0.2847972601
0.3045671717
0.3253584654
0.3472304599
0.3703483248
0.3947264015
0.420408366
0.4474851197
0.4760453225
0.5062232987
0.538125645
0.5718099589
0.6074072474
0.6450252308
0.6847994059
0.7268604803
0.7713699736
0.8185208042
0.8686044095
0.9216606871
0.9778898194
1.037444402
1.100716102
1.168248016
1.239793636
1.315873752
1.397350741
1.483399997
1.576331945
1.674543412
1.780629422
1.892969038
2.014836975
2.144790316
2.283615832
2.434973622
2.597114306
2.770911666
2.958304676
3.163273791
3.384151611
3.622520979
3.879720077
4.157220458
4.455523972
4.775270132
5.115538554
5.473804094
5.846097665
6.226007107
6.607427345
6.972085231
7.300397898
7.579539194
7.797546673
7.90285982
7.948600377
7.938775898
7.95461556
8.041801313
8.32460708
8.800414834
9.470791435
9.991807161
10.40159948
0.03529329076
0.03662035462
0.0391892592
0.04287183762
0.04760351151
0.05331793006
0.05992469246
0.06736834102
0.07553441
0.08425050671
0.09329743027
0.102144724
0.1084142171
0.1146250875
0.123465007
0.1336145974
0.1448503952
0.1570454312
0.170114266
0.1840966174
0.1988890871
0.2146186512
0.2311735909
0.2487147396
0.2671557989
0.2866317686
0.307144802
0.3287087332
0.3515268691
0.375523869
0.4007681976
0.4274504912
0.4555873022
0.4852290411
0.5164806248
0.5494443832
0.5842753515
0.6210965619
0.6599744926
0.70106035
0.7444784632
0.7903852205
0.8389314828
0.8903036735
0.9447244561
1.002530204
1.063766965
1.128665787
1.197402795
1.270430043
1.348374367
1.43095125
1.518761781
1.612801302
1.712118065
1.819378728
1.932732933
2.055175817
2.184836519
2.325494668
2.475484868
2.635715199
2.810410095
2.997550444
3.198144755
3.414430961
3.651003244
3.905937117
4.181059472
4.477914821
4.798201605
5.142499054
5.511545284
5.904278002
6.317782724
6.747478389
7.185964178
7.626193707
8.047076378
8.426009942
8.748190647
8.999811615
9.121362472
9.174155538
9.162816272
9.181098172
9.281726663
9.608136844
10.15730703
10.93104566
11.53239421
12.00537037
0.04038550533
0.04190404168
0.04484359498
0.0490575061
0.05447187912
0.06101078994
0.06857079448
0.07708843344
0.08643272566
0.09640640515
0.1067586441
0.1168824501
0.1240565232
0.1311635154
0.1412788831
0.1528928847
0.1657498148
0.1797043846
0.1946588275
0.2106585915
0.2275853601
0.2455844297
0.2645279624
0.2845999969
0.3057017838
0.3279878008
0.351460512
0.3761357474
0.4022461477
0.4297055018
0.4585921526
0.489124242
0.5213207107
0.5552392426
0.5909998919
0.6287197535
0.6685762312
0.7107101087
0.7551974559
0.8022112955
0.8518938953
0.9044242079
0.9599748605
1.018759174
1.08103194
1.147178062
1.217250234
1.29151284
1.370167414
1.453731239
1.542921587
1.637412894
1.737892973
1.845500779
1.959147242
2.081883773
2.211593039
2.351702324
2.500070835
2.661023534
2.83265474
3.01600355
3.215903914
3.430045395
3.659582013
3.907074597
4.177780191
4.469496635
4.784314411
5.124000879
5.490499535
5.884473181
6.306766433
6.756163725
7.229330062
7.721023418
8.222775162
8.726522236
9.208131035
9.641738192
10.01040403
10.29832957
10.43741813
10.49782832
10.484853
10.50577266
10.62092011
10.99442567
11.62283166
12.50820747
13.19632026
13.73753874
0.04588540128
0.04761073934
0.05095061541
0.05573839758
0.06189012645
0.06931953817
0.07790910116
0.08758671392
0.09820355763
0.1095355016
0.1212975592
0.1328000747
0.1409511482
0.1490260054
0.1605189334
0.1737145867
0.1883224365
0.204177408
0.2211684201
0.2393471104
0.2585790493
0.2790293203
0.3005526761
0.3233582186
0.3473337501
0.3726547862
0.3993241262
0.427359756
0.4570259985
0.4882249019
0.5210454784
0.5557355772
0.5923167187
0.6308544424
0.6714851522
0.7143418893
0.7596262174
0.8074980927
0.8580439447
0.9114603593
0.967908979
1.027593127
1.090708939
1.157498789
1.228252164
1.303406389
1.383021333
1.467397385
1.556763525
1.65170748
1.753044207
1.860403802
1.974567751
2.096830115
2.22595351
2.365404904
2.512778613
2.671968666
2.840542728
3.023414754
3.218419538
3.426737688
3.653861462
3.897165779
4.157961818
4.439159155
4.746730762
5.07817458
5.435865784
5.821812418
6.238222657
6.685849564
7.165652779
7.676251195
8.213855643
8.772510208
9.342592962
9.914942781
10.46213942
10.95479733
11.37366988
11.70080654
11.85883685
11.92747401
11.91273164
11.93650024
12.06732904
12.49170041
13.20568581
14.21163643
14.9934598
15.60838406
0.05182561745
0.05377431372
0.0575465623
0.0629541595
0.06990227672
0.07829348262
0.08799503024
0.09892548399
0.1109167593
0.1237157102
0.1370004561
0.1499920602
0.1591983525
0.1683185617
0.1812993372
0.1962032687
0.2127022164
0.2306097353
0.2498003638
0.2703324247
0.2920540851
0.3151518002
0.3394615189
0.3652194134
0.3922987609
0.4208977987
0.4510196888
0.4826847453
0.5161915098
0.5514293499
0.5884988011
0.6276797986
0.6689966487
0.7125233755
0.7584140414
0.806818911
0.8579656417
0.9120348975
0.9691242966
1.029455875
1.0932122
1.160622917
1.231909555
1.307345861
1.387258802
1.472142316
1.562064024
1.6573632
1.758298471
1.865533647
1.979989189
2.101247305
2.230190651
2.368280812
2.514120218
2.671624662
2.838077025
3.017875448
3.208272711
3.41481892
3.635068565
3.870355093
4.126881777
4.401683698
4.69624178
5.013842263
5.361231367
5.735583123
6.139580189
6.575490568
7.045808296
7.551383931
8.093301342
8.670000629
9.277202084
9.908178756
10.55206308
11.19850796
11.8165434
12.37297964
12.84607845
13.21556545
13.394054
13.47157675
13.45492587
13.4817715
13.62953709
14.10884658
14.91526285
16.05144147
16.93447786
17.62900877
0.05824140579
0.06043134226
0.06467057897
0.07074761343
0.07855587765
0.08798587872
0.09888843616
0.111172033
0.1246477766
0.1390311825
0.1539605228
0.1685604315
0.1789064232
0.189155675
0.2037434146
0.2204923887
0.2390338351
0.2591582277
0.2807245735
0.3037984151
0.3282091235
0.3541662363
0.3814853936
0.4104320045
0.4408636586
0.4730031343
0.5068539846
0.5424390388
0.5800937966
0.6196939296
0.6613524192
0.7053838555
0.7518155538
0.8007307019
0.8523024348
0.9066996188
0.9641780946
1.024940891
1.089097712
1.15689808
1.228547164
1.304303038
1.384414654
1.469189651
1.55899547
1.654387198
1.755440825
1.86253763
1.975968252
2.096478682
2.225103327
2.361372675
2.506278652
2.661463781
2.825357478
3.002360293
3.189418742
3.391475437
3.605443061
3.837558802
4.085074405
4.349488392
4.637771974
4.946593191
5.277616295
5.634534351
6.02492873
6.445623622
6.899633786
7.389507992
7.918049031
8.486212753
9.095217207
9.743309383
10.42567976
11.13476863
11.85836307
12.58483504
13.2793806
13.90470125
14.43636766
14.85159556
15.05218022
15.13929996
15.12058777
15.15075678
15.3168151
15.85546104
16.76170818
18.03854082
19.03089331
19.81140416
0.06517084046
0.06762133077
0.07236494256
0.07916500925
0.08790228361
0.09845424551
0.1106539653
0.1243990376
0.1394780956
0.1555728075
0.1722784079
0.1886153818
0.2001923169
0.2116610022
0.227984359
0.2467260893
0.2674735563
0.289992305
0.3141245673
0.3399436839
0.3672587249
0.396304158
0.4268736887
0.4592643039
0.4933166494
0.5292800093
0.5671583596
0.6069772455
0.6491120837
0.6934237536
0.7400386789
0.7893088789
0.8412649187
0.8959998839
0.9537075084
1.01457675
1.078893889
1.14688611
1.218676169
1.294543275
1.37471701
1.459486152
1.549129272
1.643990612
1.74448133
1.851222556
1.964299323
2.08413827
2.211064619
2.345913115
2.489841238
2.642323615
2.804470187
2.978118903
3.161512312
3.359574533
3.568888786
3.794985743
4.034410766
4.294143128
4.571107594
4.866980977
5.189563908
5.535127995
5.905535502
6.304918885
6.741761531
7.212509778
7.720537075
8.26869544
8.860121132
9.495883726
10.17734619
10.90254695
11.66610427
12.45955897
13.26924509
14.0821511
14.85933217
15.5590521
16.15397501
16.61860581
16.84305559
16.94054065
16.91960213
16.95336058
17.13917616
17.74190901
18.75597944
20.18472683
21.29514724
22.16852156
0.07265504386
0.07538694788
0.0806753149
0.08825629957
0.09799696039
0.109760707
0.1233614397
0.1386849927
0.1554957261
0.1734387508
0.1920628182
0.2102759262
0.2231823537
0.2359681
0.2541660272
0.2750600531
0.2981901542
0.3232949505
0.3501985559
0.3789827336
0.4094346272
0.4418156307
0.4758957589
0.5120061044
0.549969013
0.5900623964
0.6322906871
0.6766823641
0.7236559568
0.7730563681
0.8250245401
0.8799529178
0.9378755766
0.9988962918
1.063231046
1.131090496
1.202793799
1.278594231
1.358628642
1.443208309
1.532589176
1.627093185
1.727030899
1.832786092
1.94481714
2.063816503
2.189878977
2.3234802
2.46498274
2.615317204
2.775773998
2.945767414
3.126534858
3.32012535
3.524579613
3.745387252
3.978739103
4.230800979
4.497721513
4.787281476
5.096052474
5.425903884
5.78553216
6.170780743
6.583725756
7.02897423
7.515983779
8.040792639
8.607161667
9.218270405
9.877615279
10.58638869
11.34611015
12.15459278
13.00583683
13.89041168
14.79308195
15.69934189
16.56577425
17.34584984
18.00909355
18.52708244
18.77730799
18.8859882
18.8626451
18.90028036
19.10743496
19.77938551
20.90991154
22.50273593
23.74067675
24.71434916
0.08073843063
0.08377427827
0.08965101346
0.09807543623
0.1088998144
0.1219723609
0.1370862711
0.1541146776
0.1727957238
0.1927350367
0.2134311633
0.2336706081
0.2480129668
0.2622212177
0.2824437928
0.3056624267
0.3313659149
0.3592637971
0.3891606186
0.4211472393
0.4549871212
0.49097074
0.5288425231
0.5689703996
0.6111569499
0.6557110054
0.7026374917
0.7519680563
0.804167793
0.859064349
0.9168143471
0.9778538947
1.042220858
1.110030559
1.181523009
1.256932302
1.336613105
1.420846869
1.509785674
1.603775426
1.703100546
1.808118793
1.919175284
2.036696489
2.161191782
2.293430665
2.43351848
2.581983782
2.739229479
2.906289715
3.08459846
3.273504844
3.474383943
3.689512744
3.916713989
4.162088037
4.421401929
4.701507469
4.998124797
5.319900351
5.663024303
6.029574012
6.429213474
6.857323683
7.316211746
7.810997256
8.352190057
8.93538761
9.564769192
10.24386809
10.97656974
11.76419921
12.60844503
13.50687708
14.45282804
15.43581809
16.4389168
17.44600456
18.40883363
19.27569814
20.0127324
20.58835122
20.86641612
20.98718778
20.96124759
21.00307004
21.23327205
21.97998184
23.23628688
25.00632423
26.38199471
27.46399505
0.08946897125
0.09283309615
0.09934530413
0.1086806904
0.120675548
0.1351616766
0.151909909
0.1707796591
0.1914807549
0.2135761784
0.2365102524
0.2589382621
0.2748315124
0.2905761532
0.312985469
0.3387148184
0.3671977183
0.3981123002
0.4312419739
0.4666874245
0.504186536
0.5440611947
0.5860281916
0.6304952416
0.6772435773
0.726615425
0.7786162432
0.8332811015
0.8911253859
0.9519581064
1.015952822
1.083592798
1.154919996
1.230062207
1.309285396
1.392848971
1.481145949
1.574488217
1.673044299
1.777197505
1.887263012
2.003637265
2.126702699
2.2569319
2.394889323
2.541427677
2.696663698
2.861183094
3.035432341
3.220557408
3.418147328
3.627480847
3.850081735
4.088473197
4.34024254
4.612149778
4.899504226
5.209898598
5.538590239
5.895160555
6.275387751
6.681573815
7.124427747
7.598831072
8.107340373
8.655628843
9.255342793
9.901603622
10.59904253
11.35157487
12.16350621
13.03630492
13.97184212
14.9674249
16.01566498
17.10494932
18.21651675
19.33250459
20.39944787
21.3600496
22.17678206
22.81464463
23.1227777
23.25660884
23.22786365
23.27420852
23.52930311
24.35675735
25.74891122
27.71034917
29.23477591
30.43377688
0.09889847665
0.1026171606
0.1098157172
0.1201349985
0.1333940437
0.1494069254
0.1679203234
0.1887788347
0.2116617046
0.2360858563
0.2614370474
0.2862288379
0.3037971436
0.3212011773
0.3459723037
0.3744133758
0.4058982066
0.4400710042
0.4766923514
0.5158735448
0.557324843
0.6014020571
0.6477921297
0.6969457462
0.7486210825
0.8031964338
0.8606778336
0.9211040477
0.9850447807
1.052288914
1.123028297
1.197797131
1.276641798
1.359703557
1.447276406
1.539647092
1.637250054
1.740430051
1.849373366
1.96450371
2.086169476
2.214808894
2.350844704
2.494799299
2.647296626
2.809279265
2.980876253
3.16273503
3.355349126
3.559985291
3.77840003
4.009796076
4.255857794
4.519374319
4.797678676
5.098243343
5.415883266
5.758991387
6.122325201
6.51647594
6.936776854
7.38577255
7.875300692
8.399703348
8.96180655
9.567881413
10.2308017
10.94517463
11.71611951
12.54796435
13.44546851
14.41025508
15.44439243
16.54490379
17.70362224
18.90771077
20.13643089
21.37003731
22.54943016
23.61127369
24.51408496
25.21917451
25.55978301
25.70771916
25.67594439
25.72717374
26.0091538
26.92381687
28.46269561
30.63085762
32.31595001
33.64131866
0.1090829058
0.1131845347
0.1211243887
0.1325063354
0.147130779
0.1647926452
0.1852125274
0.2082190195
0.2334583359
0.2603976531
0.2883594751
0.3157042901
0.3350817558
0.3542780329
0.3816000559
0.4129699504
0.4476970458
0.4853889111
0.5257814743
0.5689974931
0.614717389
0.663333614
0.7145008725
0.7687162608
0.8257130523
0.8859084982
0.9493092535
1.015958076
1.086483338
1.160652179
1.238676207
1.321144633
1.408108615
1.49972396
1.59631494
1.698197833
1.805851813
1.919657144
2.039819293
2.166805601
2.30100034
2.442886869
2.592931459
2.751710301
2.919911593
3.098574981
3.287842791
3.488429134
3.700878366
3.926587681
4.16749447
4.422719363
4.694120178
4.984773273
5.291737029
5.623253433
5.973603478
6.352044401
6.752793832
7.187533672
7.651116596
8.146349251
8.686288329
9.264693249
9.884681066
10.55316868
11.28435559
12.07229367
12.92262939
13.84013647
14.83006436
15.89420334
17.03483472
18.24867524
19.52671691
20.85480083
22.21005286
23.57069436
24.87153947
26.04273019
27.03851173
27.81621043
28.19189431
28.35506473
28.32001784
28.37652271
28.6875407
29.69639451
31.39374487
33.78518122
35.64380211
37.1056554
0.1200826977
0.12459793
0.1333384296
0.1458681184
0.1619672736
0.1814101416
0.2038891408
0.2292155804
0.2569999999
0.2866558461
0.3174373053
0.3475395393
0.3688710058
0.390003013
0.4200801565
0.4546133544
0.4928422891
0.5343349579
0.5788006596
0.6263745309
0.6767047674
0.7302233953
0.7865502999
0.8462327042
0.908976985
0.9752424689
1.045036482
1.118406093
1.196043039
1.277690979
1.363582859
1.454367303
1.550100631
1.65095436
1.757285461
1.869442105
1.987951786
2.113233112
2.24551227
2.385303729
2.533030508
2.689224706
2.854399617
3.02918953
3.214352043
3.411031636
3.61938499
3.840198224
4.074070586
4.322540164
4.58773971
4.86870118
5.167469734
5.487431945
5.825349565
6.190295693
6.575974625
6.992577086
7.433737618
7.912316112
8.422646193
8.967817526
9.562203425
10.19893402
10.88144068
11.6173378
12.42225673
13.28964956
14.22573214
15.23575955
16.32551061
17.4969561
18.75260742
20.08885018
21.49576807
22.95777441
24.44968846
25.94753545
27.37955625
28.66884846
29.76504344
30.62116436
31.03473177
31.2143561
31.17577512
31.23797788
31.58035855
32.690944
34.55945317
37.19203915
39.23808118
40.84734604
0.13196313
0.1369250788
0.1465303234
0.1602996422
0.1779915742
0.1993580306
0.2240609989
0.2518931206
0.2824264033
0.3150162632
0.348843099
0.3819235102
0.4053654144
0.4285881256
0.4616409641
0.4995907184
0.541601849
0.5871996124
0.6360645471
0.6883451595
0.743654839
0.802468355
0.8643679857
0.9299550938
0.9989070066
1.071728494
1.148427607
1.229056072
1.314374062
1.404099875
1.498489504
1.598255746
1.703460491
1.814292226
1.931143239
2.054396148
2.184630634
2.322306722
2.467672974
2.62129476
2.78363695
2.955284287
3.136800847
3.328883675
3.532365318
3.748503491
3.977470371
4.220129856
4.477140479
4.750192499
5.041629674
5.350388185
5.678715533
6.03033334
6.401682982
6.80273521
7.226571449
7.68439065
8.169197586
8.695124445
9.255944248
9.855052337
10.50824406
11.20796986
11.9580006
12.76670402
13.65125794
14.60446665
15.63316095
16.74311585
17.94068189
19.22802484
20.60790454
22.07634905
23.62246096
25.22911151
26.86862871
28.51466582
30.08836421
31.50521308
32.70986057
33.65068218
34.10516605
34.3025616
34.26016359
34.3285204
34.70477465
35.92523634
37.97860725
40.87164924
43.1201173
44.88859545
0.1447947067
0.1502391359
0.1607783567
0.1758865501
0.195298776
0.2187428227
0.2458478108
0.2763862187
0.3098884379
0.3456472079
0.3827632323
0.4190602529
0.4447815558
0.4702623522
0.506529119
0.5481689584
0.5942650864
0.6442965973
0.6979129664
0.7552771402
0.8159649159
0.8804972272
0.948415735
1.020380276
1.096036802
1.175939165
1.260096199
1.348564659
1.442178635
1.540629035
1.64419674
1.75366386
1.869098301
1.990706879
2.118920026
2.254157563
2.39705554
2.54811871
2.707619806
2.876179171
3.054306878
3.242644529
3.441811046
3.652571253
3.875838653
4.112993253
4.364223973
4.630478714
4.912480041
5.212082567
5.531857949
5.870638926
6.230891535
6.616699278
7.024157501
7.464206473
7.929254884
8.431590627
8.963538285
9.540604207
10.15595593
10.81331893
11.53002445
12.29778884
13.12074963
14.00808819
14.97865267
16.02454764
17.15326814
18.37115069
19.68516336
21.09768248
22.61173627
24.22296655
25.91941632
27.68229126
29.48122867
31.28731997
33.01403861
34.5686563
35.89043899
36.9227424
37.4214185
37.63800801
37.59148739
37.66649095
38.07933068
39.41846527
41.67149791
44.84584794
47.31294821
49.25338624
0.158653576
0.1646191129
0.1761670838
0.1927213417
0.2139915879
0.2396795563
0.2693788691
0.3028402277
0.3395490758
0.3787304579
0.4193990026
0.4591701534
0.4873533431
0.5152730065
0.5550110077
0.6006363595
0.6511445287
0.7059647518
0.7647129539
0.8275676777
0.8940641185
0.9647730704
1.039192325
1.118044875
1.200942783
1.288492915
1.380704948
1.477641072
1.580215209
1.688088682
1.80156926
1.921513906
2.04799703
2.181245242
2.321730173
2.469911825
2.626487128
2.792009146
2.966776718
3.15146956
3.346646569
3.553010755
3.771240281
4.002173175
4.246810373
4.50666397
4.781940968
5.073679994
5.382672774
5.710951433
6.061333771
6.432540804
6.827274604
7.250009518
7.696467167
8.178634951
8.688194971
9.238611237
9.821473693
10.45377286
11.1280223
11.8483041
12.63360832
13.47485845
14.37658804
15.34885726
16.41231827
17.55831995
18.79507471
20.12952559
21.56930755
23.11702442
24.77599424
26.54144169
28.40026532
30.33187193
32.3029927
34.28195209
36.17394174
37.87735799
39.32565368
40.45676289
41.00316924
41.24048938
41.18951609
41.27169853
41.72405278
43.1913612
45.66004042
49.13821995
51.84145605
53.96762102
0.1736219828
0.1801503471
0.1927878285
0.2109039224
0.2341809415
0.2622924793
0.2947938178
0.331412138
0.3715843367
0.4144623443
0.4589678233
0.5024912422
0.5333334167
0.5638872021
0.607374344
0.6573042872
0.7125777245
0.7725700428
0.8368609311