/*--------------------------------*- C++ -*----------------------------------*\
| =========                 |                                                 |
| \\      /  F ield         | foam-extend: Open Source CFD                    |
|  \\    /   O peration     | Version:     3.2                                |
|   \\  /    A nd           | Web:         http://www.foam-extend.org         |
|    \\/     M anipulation  | For copyright notice see file Copyright         |
\*---------------------------------------------------------------------------*/
FoamFile
{
    version     2.0;
    format      ascii;
    class       volScalarField;
    location    "0";
    object      k;
}
// * * * * * * * * * * * * * * * * * * * * * * * * * * * * * * * * * * * * * //

dimensions      [0 2 -2 0 0 0 0];

internalField   nonuniform List<scalar> 
50432
(
8.357153645e-05
8.498580668e-05
8.765428007e-05
9.133375404e-05
9.583098464e-05
0.0001009554646
0.0001065206545
0.0001123830196
0.0001183943484
0.0001244130265
0.0001302958252
0.0001357737984
0.0001395223163
0.0001430462832
0.0001477728008
0.0001528339784
0.0001580329921
0.0001632673511
0.0001684749836
0.0001736264952
0.0001786860646
0.0001836502515
0.0001884980801
0.0001932359397
0.0001978528919
0.000202357791
0.0002067489919
0.0002110300007
0.0002152122389
0.0002192945385
0.0002232828168
0.0002271896265
0.0002310178741
0.0002347731066
0.0002384631079
0.00024209564
0.000245679195
0.0002492219653
0.0002527286892
0.0002562087315
0.0002596688024
0.0002631174171
0.0002665619827
0.0002700122557
0.0002734767853
0.000276971352
0.0002804974601
0.0002840655606
0.0002876831439
0.0002913658497
0.0002951363461
0.0002989851956
0.0003029321504
0.0003070091686
0.0003111845899
0.0003155383142
0.0003200171388
0.0003246991943
0.0003295288792
0.0003346105012
0.0003398850219
0.00034536865
0.0003511602502
0.0003571895126
0.0003634593998
0.0003700004392
0.0003768730006
0.000383990954
0.0003913351813
0.0003988591735
0.0004064951409
0.0004141230594
0.0004215873476
0.0004286450937
0.0004349706431
0.0004401603365
0.0004437383589
0.0004448495098
0.0004419686991
0.0004344584331
0.0004217143007
0.0004028983596
0.0003724076009
0.0003350461403
0.0002910454418
0.0002370143136
0.000183812859
0.0001311352657
8.611229128e-05
4.861360238e-05
2.36431943e-05
7.738203491e-06
0.0002574053247
0.0002617613616
0.000269980419
0.0002813134186
0.0002951651575
0.0003109488621
0.0003280899794
0.0003461464139
0.0003646616658
0.000383199554
0.0004013189255
0.00041819141
0.0004297370692
0.0004405910977
0.0004551490541
0.0004707377836
0.0004867510563
0.0005028731947
0.000518913014
0.0005347799775
0.0005503637536
0.0005656537458
0.0005805853474
0.0005951782379
0.0006093987267
0.0006232740849
0.0006367992461
0.000649985009
0.0006628665523
0.0006754402789
0.0006877244144
0.0006997576216
0.0007115488531
0.0007231151934
0.0007344806177
0.0007456690338
0.0007567065974
0.0007676185415
0.0007784194604
0.0007891381988
0.0007997954238
0.000810417363
0.0008210268308
0.0008316538778
0.000842324836
0.0008530883101
0.0008639489336
0.0008749388963
0.000886081269
0.0008974242231
0.0009090375772
0.0009208922634
0.0009330491201
0.0009456065798
0.0009584671268
0.0009718768575
0.0009856719049
0.001000092916
0.001014968634
0.001030620333
0.001046866172
0.001063756074
0.001081594549
0.001100165037
0.001119476664
0.001139623456
0.001160791356
0.001182715078
0.001205335736
0.001228510082
0.001252029317
0.001275523762
0.001298514216
0.001320252495
0.001339735566
0.001355720131
0.001366740654
0.001370163065
0.001361289996
0.001338157928
0.001298905239
0.001240951016
0.001147037658
0.001031962128
0.0008964373475
0.0007300182448
0.0005661545865
0.0004039044523
0.0002652310014
0.0001497327995
7.282245087e-05
2.383412903e-05
0.0004451562007
0.0004526895212
0.000466903541
0.0004865028056
0.0005104579722
0.0005377542761
0.0005673980866
0.0005986248445
0.0006306450802
0.0006627044632
0.0006940400644
0.0007232193018
0.0007431863394
0.0007619572723
0.0007871337701
0.0008140928845
0.0008417862029
0.0008696677935
0.0008974070216
0.0009248473132
0.0009517978613
0.00097824034
0.001004063019
0.001029299932
0.001053892813
0.001077888827
0.001101279211
0.00112408264
0.001146359953
0.001168104928
0.001189349085
0.001210159287
0.001230551017
0.00125055382
0.00127020916
0.001289558382
0.00130864672
0.001327517812
0.001346196897
0.00136473386
0.001383164441
0.001401534
0.00141988199
0.001438260381
0.001456714713
0.001475329041
0.00149411138
0.001513117397
0.001532386992
0.001552003472
0.001572087581
0.001592589049
0.00161361309
0.001635329933
0.001657570935
0.001680761693
0.001704618818
0.001729558482
0.001755284516
0.00178235253
0.001810448048
0.001839657408
0.001870507226
0.001902622988
0.001936020473
0.001970862291
0.00200747001
0.002045384846
0.002084504963
0.002124582625
0.002165256739
0.00220588798
0.00224564762
0.002283241753
0.002316935731
0.002344579404
0.002363638271
0.002369556982
0.002354211916
0.002314207369
0.002246323854
0.00214609795
0.001983684395
0.001784673027
0.001550296771
0.001262491942
0.0009791064928
0.0006985114688
0.0004586899087
0.000258947573
0.0001259389859
4.121869015e-05
0.0006479383628
0.0006589033394
0.0006795922767
0.0007081196012
0.0007429870735
0.0007827176723
0.0008258651383
0.0008713166324
0.0009179230574
0.0009645864625
0.001010196381
0.001052667647
0.001081730276
0.001109051939
0.001145697096
0.001184936905
0.001225245371
0.001265827872
0.001306203161
0.001346143338
0.001385370679
0.001423858509
0.001461444202
0.001498177295
0.001533972981
0.001568899907
0.001602945321
0.001636136405
0.001668561709
0.001700212181
0.001731133696
0.001761423576
0.001791104358
0.001820219046
0.001848827989
0.001876991369
0.001904775025
0.001932242472
0.001959430448
0.00198641156
0.00201323783
0.00203997528
0.002066681337
0.002093431643
0.002120292483
0.002147386203
0.002174724467
0.002202388302
0.002230435782
0.002258988164
0.002288221194
0.002318061703
0.002348662833
0.002380272358
0.002412644811
0.002446399664
0.002481124433
0.002517424871
0.002554869894
0.002594268211
0.00263516209
0.002677677199
0.002722580047
0.002769325513
0.002817936566
0.002868649889
0.002921933536
0.002977119731
0.003034060249
0.003092394502
0.00315159691
0.003210736915
0.003268608277
0.003323327679
0.003372370287
0.003412606492
0.003440347252
0.003448962114
0.003426626905
0.003368399073
0.003269592557
0.003123710711
0.002887312852
0.002597645764
0.002256504009
0.001837595344
0.001425119221
0.001016704646
0.0006676370856
0.0003769060529
0.0001833080168
5.999505471e-05
0.0008669552118
0.0008816265821
0.000909308817
0.0009474789797
0.0009941323939
0.001047292774
0.001105024995
0.001165840054
0.001228200434
0.001290637056
0.00135166409
0.001408491541
0.001447377953
0.001483934914
0.001532966908
0.001585470601
0.001639404179
0.001693704423
0.001747727412
0.001801168213
0.001853655223
0.001905152753
0.001955443204
0.002004592857
0.002052488241
0.002099221206
0.002144774689
0.002189185059
0.002232570802
0.002274919801
0.002316293441
0.002356821941
0.002396535454
0.00243549152
0.002473770891
0.002511454088
0.002548629206
0.002585381231
0.002621759316
0.002657860613
0.00269375473
0.002729530002
0.00276526327
0.002801055745
0.002836996116
0.002873248086
0.00290982726
0.002946842055
0.002984370176
0.003022573866
0.003061688278
0.003101615509
0.003142560467
0.003184854678
0.003228169704
0.00327333441
0.003319796884
0.003368367637
0.003418469869
0.003471185649
0.003525902523
0.003582788637
0.003642869595
0.003705416015
0.003770458631
0.003838314129
0.003909608773
0.003983449067
0.004059636682
0.004137689146
0.004216903218
0.004296033793
0.004373466898
0.004446682612
0.004512302658
0.004566139549
0.004603257272
0.00461478414
0.004584899159
0.004506989089
0.004374783885
0.004179590894
0.003863285567
0.003475704886
0.003019250015
0.002458741375
0.001906839612
0.001360372286
0.0008933125189
0.0005043082578
0.0002452699974
8.02746501e-05
0.001103506493
0.001122180989
0.001157416404
0.001206001407
0.001265384343
0.001333049689
0.001406534316
0.001483942943
0.001563318537
0.001642791175
0.001720469615
0.001792802602
0.001842299286
0.001888830922
0.001951241439
0.00201807092
0.002086720434
0.002155836659
0.002224599979
0.00229262226
0.002359430505
0.002424979288
0.002488991636
0.002551551917
0.002612515697
0.00267199989
0.002729982774
0.002786510645
0.002841734315
0.002895638363
0.002948300923
0.002999887743
0.003050437205
0.003100022549
0.003148746558
0.003196711727
0.003244030185
0.003290810108
0.003337114061
0.003383065703
0.003428753635
0.003474290295
0.003519773491
0.003565332048
0.003611078855
0.003657222281
0.003703782191
0.003750896582
0.003798664361
0.00384729204
0.003897078934
0.003947900428
0.004000017339
0.004053851649
0.004108985307
0.004166473337
0.004225613234
0.00428743666
0.004351209432
0.004418308868
0.004487955402
0.00456036306
0.004636837284
0.004716449679
0.004799239364
0.004885609434
0.004976357032
0.005070344867
0.005167320498
0.005266669805
0.00536749767
0.005468219255
0.00556678021
0.005659973048
0.005743497717
0.005812024162
0.005859269565
0.005873941573
0.005835902386
0.005736734325
0.005568456541
0.005320004569
0.004917394402
0.004424061192
0.003843061266
0.003129616195
0.002427126411
0.001731553867
0.001137055468
0.00064191025
0.0003121926379
0.0001021778246
0.001358996007
0.00138199412
0.001425387419
0.001485221073
0.001558352652
0.001641684229
0.001732182395
0.001827513067
0.001925266108
0.00202313866
0.002118801613
0.002207881507
0.002268837919
0.002326142799
0.002403002921
0.002485305108
0.002569848711
0.002654967081
0.00273965084
0.00282342199
0.002905698025
0.002986422999
0.003065255817
0.003142300377
0.003217378806
0.003290635085
0.003362042466
0.003431657961
0.0034996673
0.003566051491
0.003630906758
0.003694437225
0.003756690159
0.003817755758
0.003877760601
0.003936830913
0.003995104784
0.004052715436
0.00410973992
0.004166330523
0.00422259636
0.004278675903
0.004334689603
0.004390796113
0.004447134456
0.004503961246
0.004561300946
0.004619323504
0.004678150725
0.004738036935
0.004799350748
0.004861938696
0.004926121983
0.004992420291
0.005060318778
0.005131116733
0.005203949003
0.005280086108
0.005358623882
0.005441258525
0.005527029983
0.005616201835
0.005710381766
0.005808426434
0.005910384014
0.006016750928
0.006128508877
0.006244257262
0.00636368519
0.006486036361
0.006610208414
0.00673424958
0.006855629876
0.0069703992
0.007073261931
0.007157653972
0.007215837875
0.007233906821
0.007187060606
0.007064932643
0.006857694319
0.006551719465
0.006055894916
0.005448342657
0.004732826631
0.003854201077
0.002989067236
0.002132452149
0.001400312415
0.0007905286217
0.0003844730876
0.0001258345615
0.001634939946
0.001662607822
0.001714812123
0.001786794993
0.001874775928
0.001975027969
0.002083901775
0.002198589325
0.002316191107
0.002433936666
0.002549023968
0.002656191521
0.002729525123
0.00279846575
0.002890932309
0.002989945943
0.003091656112
0.003194057755
0.003295936538
0.003396717407
0.003495699579
0.003592815748
0.003687655558
0.003780344004
0.003870667097
0.003958798053
0.004044704692
0.004128455603
0.004210274228
0.004290137719
0.004368161839
0.004444592158
0.00451948554
0.0045929505
0.004665139318
0.004736203848
0.00480631022
0.004875618707
0.004944222003
0.00501230332
0.005079993927
0.005147460413
0.005214847686
0.005282346614
0.00535012445
0.005418489911
0.005487472429
0.005557276458
0.005628048539
0.005700094635
0.005773858208
0.00584915463
0.005926370324
0.006006130493
0.006087815758
0.006172989227
0.006260610079
0.006352206811
0.006446691669
0.006546105264
0.006649292605
0.006756570788
0.00686987394
0.006987826563
0.007110486614
0.007238451314
0.007372901699
0.007512152776
0.007655830527
0.007803025086
0.007952410255
0.008101637961
0.008247664509
0.008385737727
0.00850948672
0.008611014553
0.008681012688
0.008702750532
0.0086463922
0.008499466172
0.008250148137
0.007882045134
0.007285543484
0.006554627828
0.005693826379
0.004636796036
0.003595996896
0.002565446243
0.001684645644
0.0009510453415
0.0004625402912
0.0001513852507
0.001932975884
0.001965687383
0.002027408095
0.002112512841
0.002216531969
0.002335059121
0.002463779716
0.002599373851
0.002738413459
0.002877623053
0.003013689812
0.003140393118
0.003227094824
0.003308602754
0.003417925196
0.003534988191
0.003655239277
0.003776307887
0.003896758324
0.004015910707
0.004132936504
0.004247756142
0.004359884459
0.004469469237
0.004576257478
0.004680453974
0.004782020678
0.004881038682
0.004977772161
0.005072194102
0.005164441369
0.005254804299
0.005343350121
0.005430207131
0.00551555537
0.005599574372
0.005682460552
0.005764403398
0.005845512504
0.005926004479
0.00600603452
0.006085799584
0.006165470995
0.006245274417
0.006325407588
0.006406235503
0.006487792959
0.006570321682
0.006653994923
0.006739174423
0.006826384481
0.006915406814
0.007006698285
0.00710099807
0.007197573878
0.007298273761
0.007401867165
0.007510161219
0.007621869879
0.007739405745
0.007861403279
0.007988237382
0.008122194755
0.008261649159
0.008406669116
0.008557960715
0.008716920286
0.008881555674
0.009051424683
0.009225451584
0.009402068426
0.0095784991
0.009751145071
0.009914387888
0.01006069529
0.0101807308
0.01026348902
0.01028918949
0.0102225575
0.01004884808
0.009754081445
0.009318876329
0.008613637395
0.007749481902
0.006731763516
0.005482045343
0.004251517187
0.003033105731
0.001991742517
0.001124412988
0.0005468575348
0.0001789815213
0.002254872501
0.002293031415
0.002365030417
0.002464307576
0.002585648909
0.002723914274
0.002874070586
0.003032245082
0.003194438822
0.003356830856
0.003515556682
0.003663359767
0.003764499826
0.003859581193
0.003987108997
0.00412366638
0.004263942764
0.004405172812
0.004545681745
0.00468467646
0.004821190451
0.004955130893
0.005085931831
0.005213765657
0.00533833724
0.005459885479
0.005578365988
0.005693873366
0.005806715778
0.005916861714
0.00602447083
0.006129881812
0.006233173085
0.006334494309
0.006434055508
0.006532066114
0.00662875525
0.00672434396
0.006818960087
0.006912856313
0.00700621368
0.007099261944
0.007192200959
0.007285293967
0.007378771638
0.007473059749
0.007568198889
0.007664471042
0.007762078307
0.007861442667
0.007963175732
0.008067022869
0.008173517021
0.008283520458
0.008396178943
0.008513648281
0.008634492996
0.008760821154
0.00889113255
0.009028241551
0.009170555216
0.009318510881
0.009474776046
0.009637453658
0.00980662365
0.009983109694
0.01016854065
0.01036059261
0.01055874974
0.01076175718
0.01096778585
0.01117359736
0.01137499389
0.01156542138
0.01173609322
0.01187611813
0.01197265798
0.01200263833
0.01192491018
0.0117222731
0.01137841926
0.01087073985
0.01004805816
0.00903999568
0.007852797629
0.006394965089
0.004959518261
0.003538205915
0.002323425485
0.001311660403
0.0006379251948
0.0002087871421
0.002602540078
0.002646582525
0.002729682695
0.002844266905
0.002984317254
0.003143901069
0.003317209236
0.003499771871
0.003686973457
0.003874403911
0.004057602882
0.004228194991
0.004344929331
0.004454670822
0.004601861504
0.00475947399
0.004921378892
0.0050843845
0.005246557806
0.005406983424
0.005564545829
0.005719137881
0.005870106365
0.006017650253
0.00616142891
0.006301718066
0.006438466497
0.006571783382
0.006702024405
0.006829153195
0.006953354025
0.007075017802
0.007194235043
0.007311178483
0.007426090528
0.007539212902
0.007650810055
0.007761137112
0.00787034163
0.007978715247
0.008086466923
0.008193861836
0.008301130655
0.008408577211
0.008516467739
0.008625293665
0.008735101836
0.008846217713
0.008958874558
0.009073559413
0.009190978195
0.009310837004
0.009433750961
0.009560715281
0.009690744017
0.009826325368
0.009965802528
0.0101116086
0.01026201206
0.01042026121
0.01058451752
0.01075528573
0.01093564464
0.01112340471
0.01131865818
0.01152235573
0.01173637736
0.01195804086
0.01218675085
0.01242105899
0.0126588542
0.01289639876
0.01312884763
0.01334863618
0.01354562306
0.01370723772
0.01381866257
0.01385326544
0.01376355278
0.01352967209
0.01313280114
0.01254684517
0.01159731827
0.01043382765
0.00906358144
0.007380972952
0.005724201716
0.004083744289
0.002681662905
0.001513898797
0.000736283708
0.0002409789932
0.00297804183
0.003028438844
0.003123528939
0.003254645679
0.003414902884
0.003597511897
0.00379582545
0.004004728732
0.004218940286
0.00443341373
0.00464304516
0.004838250774
0.004971827872
0.005097403171
0.005265830935
0.005446184192
0.005631449185
0.005817973697
0.006003545821
0.006187118095
0.006367414044
0.006544311069
0.006717061708
0.00688589364
0.007050417083
0.007210947551
0.007367426427
0.007519978645
0.007669011206
0.007814482494
0.007956603366
0.008095821133
0.00823223937
0.008366055736
0.008497547612
0.008626991598
0.0087546903
0.008880935653
0.009005896503
0.00912990657
0.009253204958
0.009376095109
0.009498840973
0.009621790218
0.009745247493
0.009869775127
0.009995426729
0.01012257471
0.010251486
0.01038271791
0.0105170782
0.01065423057
0.0107948789
0.01094016199
0.01108895163
0.01124409504
0.01140369635
0.01157053973
0.01174264382
0.01192372561
0.01211168127
0.0123070884
0.01251347
0.01272832061
0.0129517458
0.0131848334
0.01342973467
0.01368338039
0.01394508931
0.01421320408
0.01448530905
0.0147571272
0.01502311444
0.0152746147
0.01550002339
0.01568495626
0.01581245781
0.01585205327
0.01574939662
0.01548177097
0.01502763837
0.01435713903
0.01327061175
0.01193924945
0.01037130029
0.008445920346
0.006550105528
0.004672958321
0.00306858072
0.001732328344
0.000842516778
0.0002757481155
0.003383606154
0.00344086648
0.003548906411
0.00369787927
0.003879961086
0.00408743869
0.004312759553
0.004550112308
0.00479349624
0.005037177728
0.005275357793
0.005497147465
0.005648915746
0.005791592505
0.005982957587
0.006187872233
0.006398367521
0.006610293855
0.006821138099
0.007029710145
0.007234559679
0.007435547408
0.007631824075
0.007823648367
0.008010577418
0.008192969711
0.008370758647
0.008544086174
0.008713414719
0.008878696999
0.009040172588
0.009198349712
0.009353346053
0.009505386187
0.009654785271
0.009801857572
0.00994694691
0.01009038497
0.0102323636
0.01037326197
0.01051335174
0.01065297767
0.01079243967
0.01093213274
0.01107240303
0.01121388945
0.0113566529
0.01150111652
0.01164758358
0.01179668729
0.01194934543
0.01210517588
0.01226497839
0.01243004684
0.01259909938
0.01277537098
0.01295670758
0.01314627251
0.01334181458
0.01354755697
0.01376110935
0.01398312798
0.01421761564
0.01446172566
0.01471557798
0.01498040859
0.01525866172
0.01554685016
0.01584419988
0.01614882783
0.01645798939
0.01676682507
0.01706903575
0.01735478655
0.0176108925
0.01782101044
0.01796587577
0.01801086354
0.01789422659
0.01759015438
0.01707417577
0.01631236456
0.01507786866
0.01356519493
0.01178371476
0.009596127151
0.007442130985
0.005309344676
0.003486475074
0.001968245304
0.0009572548398
0.0003133008446
0.003821639852
0.003886312966
0.004008339491
0.004176598027
0.004382251727
0.004616588893
0.004871079266
0.00513915915
0.005414050994
0.005689278915
0.005958293211
0.006208795252
0.006380211098
0.006541358455
0.00675749721
0.006988939625
0.007226685138
0.007466046957
0.007704186601
0.007939759894
0.008171128767
0.008398135895
0.008619822078
0.008836479492
0.009047607938
0.009253612309
0.009454417383
0.009650183484
0.009841432904
0.01002811224
0.01021049208
0.01038914644
0.01056420824
0.01073593114
0.01090467108
0.01107078301
0.01123465527
0.01139666249
0.01155702134
0.01171616008
0.01187438554
0.01203208711
0.01218960353
0.01234738095
0.0125058103
0.01266561322
0.01282685849
0.01299002403
0.01315545237
0.0133238587
0.0134962796
0.0136722835
0.01385277366
0.01403921148
0.01423014917
0.01442924047
0.01463405249
0.01484815804
0.01506901453
0.01530139185
0.01554259022
0.01579335085
0.01605819474
0.01633390666
0.01662062211
0.01691973707
0.01723401219
0.01755950884
0.01789535274
0.01823941712
0.018588602
0.01893741882
0.019278753
0.01960149642
0.01989075725
0.02012807655
0.02029169581
0.02034250759
0.0202107711
0.01986733441
0.01928455843
0.01842412492
0.01702981409
0.01532131317
0.01330920677
0.01083841921
0.008405571766
0.005996679956
0.00393782594
0.002223049714
0.001081178801
0.0003538600354
0.004294742413
0.00436742178
0.004504554665
0.004693642883
0.004924755625
0.005188102724
0.00547409791
0.005775364929
0.0060842872
0.006393587152
0.006695904261
0.006977417376
0.007170053765
0.007351150471
0.007594046274
0.007854140263
0.008121317647
0.008390311429
0.008657931736
0.008922667989
0.009182679332
0.009437788965
0.009686918943
0.009930397612
0.01016766285
0.01039916968
0.01062483355
0.01084483465
0.01105975993
0.01126954936
0.01147450704
0.01167527805
0.01187201175
0.01206499319
0.01225462241
0.01244129829
0.01262545723
0.01280752024
0.01298773083
0.01316657026
0.01334438335
0.0135216077
0.01369862398
0.01387593355
0.01405397578
0.01423356161
0.01441476835
0.01459813308
0.01478404074
0.01497329505
0.01516706091
0.01536485333
0.0155676874
0.01577720542
0.01599178038
0.01621551833
0.01644568519
0.01668629608
0.01693449366
0.01719563828
0.01746669598
0.0177484997
0.01804613011
0.01835597399
0.01867818358
0.01901432768
0.01936750871
0.01973330044
0.02011072038
0.02049737844
0.02088979091
0.02128178975
0.02166537962
0.02202807729
0.02235314736
0.02261984578
0.0228037204
0.02286082246
0.02271277756
0.02232682488
0.02167190374
0.02070495227
0.01913803176
0.01721802578
0.01495682928
0.01218016885
0.009446145365
0.006739043119
0.00442531184
0.002498253698
0.001215024082
0.0003976663844
0.004805721443
0.004887048041
0.005040496695
0.005252082215
0.005510692244
0.005805371802
0.006125394068
0.006462505176
0.006808182341
0.007154282123
0.007492568258
0.007807575185
0.00802313103
0.008225774225
0.008497569237
0.008788608639
0.009087574202
0.009388572273
0.009688033457
0.009984267448
0.01027521437
0.01056067639
0.0108394473
0.01111189453
0.01137738907
0.01163644007
0.01188895294
0.01213512929
0.0123756259
0.01261037562
0.01283971871
0.01306437701
0.01328451765
0.01350045961
0.0137126505
0.01392153666
0.01412760643
0.0143313309
0.01453298255
0.0147330999
0.0149320688
0.01513037892
0.0153284562
0.01552686168
0.01572608698
0.01592703954
0.01612980586
0.01633498693
0.01654301347
0.01675478484
0.01697160454
0.01719292987
0.01741989669
0.0176543427
0.01789444732
0.01814480512
0.01840235672
0.01867159498
0.01894932255
0.0192415376
0.01954484514
0.01986017725
0.02019321908
0.0205399275
0.02090047288
0.02127661067
0.0216718124
0.02208112523
0.02250344976
0.02293611155
0.0233752124
0.0238138504
0.02424307895
0.02464892959
0.02501267579
0.0253111054
0.02551685702
0.02558075295
0.025415094
0.02498322152
0.0242503793
0.02316838206
0.02141503279
0.01926658871
0.01673636001
0.01362933862
0.01057002701
0.007540839683
0.004951825732
0.002795490442
0.001359584981
0.0004449798583
0.005357609319
0.005448275445
0.005619346104
0.005855230053
0.006143538796
0.006472059282
0.006828832827
0.007204657693
0.007590032338
0.007975878135
0.008353012967
0.008704195213
0.008944505438
0.009170420128
0.009473428013
0.009797890308
0.010131189
0.01046675362
0.01080060485
0.01113085828
0.01145521748
0.01177346189
0.01208424679
0.01238798178
0.01268396565
0.012972766
0.01325427739
0.01352872457
0.01379683976
0.01405854808
0.01431422887
0.01456468687
0.01481010842
0.0150508491
0.01528740793
0.01552028253
0.0157500173
0.01597713744
0.01620194671
0.01642504549
0.01664686393
0.01686794794
0.01708877237
0.01730996268
0.01753206697
0.01775609687
0.01798214883
0.01821089284
0.0184428091
0.01867890024
0.01892061946
0.01916736174
0.01942039337
0.01968176311
0.01994944128
0.02022855011
0.02051567888
0.02081583639
0.02112545813
0.02145123108
0.02178937038
0.02214091516
0.02251220343
0.02289872776
0.02330067808
0.02372001144
0.02416059805
0.02461691625
0.02508774043
0.025570089
0.02605961608
0.02654862716
0.02702714822
0.02747960665
0.02788512537
0.02821782656
0.02844720664
0.02851844038
0.02833375718
0.02785228858
0.02703528693
0.0258290334
0.02387432992
0.02147915906
0.0186583595
0.01519452853
0.01178388634
0.00840682787
0.00552049219
0.003116523881
0.001515719389
0.0004960812365
0.005953681195
0.006054434567
0.006244538046
0.006506665751
0.006827050877
0.007192121588
0.007588588709
0.008006226745
0.008434477042
0.008863250909
0.009282344654
0.009672598406
0.009939644841
0.01019069414
0.01052741379
0.0108879748
0.01125835533
0.01163125388
0.01200224842
0.01236924488
0.01272969133
0.01308334267
0.01342870459
0.01376623225
0.01409514641
0.01441607784
0.01472890936
0.01503389073
0.01533183562
0.01562266084
0.01590678793
0.01618511116
0.01645783758
0.01672536236
0.01698824003
0.01724702358
0.01750231796
0.01775470682
0.01800452772
0.01825244781
0.01849894511
0.01874462628
0.01899001898
0.01923581829
0.01948263324
0.01973158805
0.01998278989
0.02023698328
0.02049470187
0.02075705981
0.021025672
0.0212998661
0.02158104929
0.02187149826
0.02216895752
0.02247911917
0.02279819305
0.0231317452
0.02347581455
0.02383783204
0.02421359173
0.02460424834
0.02501684505
0.02544637295
0.02589304308
0.02635903025
0.02684863522
0.02735572205
0.02787892874
0.028414942
0.02895893242
0.02950234944
0.03003410934
0.03053690697
0.03098754251
0.03135725906
0.0316121593
0.03169131828
0.03148608778
0.0309510524
0.03004315355
0.02870269579
0.02653051775
0.0238688672
0.02073423378
0.01688502715
0.01309492692
0.009342146846
0.006134685936
0.003463259174
0.001684353876
0.0005512737778
0.006597474431
0.006709122632
0.006919782693
0.007210255221
0.007565284757
0.007969831894
0.008409170449
0.008871969208
0.00934652777
0.009821666517
0.0102860784
0.01071853171
0.01101445485
0.01129265101
0.01166578139
0.01206533118
0.01247576231
0.01288898374
0.01330009527
0.01370677639
0.01410619922
0.01449809218
0.01488079933
0.01525482509
0.01561930594
0.01597494086
0.01632159998
0.0166595601
0.01698972286
0.01731199607
0.01762684686
0.01793526618
0.01823748351
0.01853393672
0.01882524031
0.01911200706
0.01939490736
0.01967458795
0.01995142288
0.02022615148
0.02049930344
0.020771551
0.02104347891
0.02131585739
0.02158936135
0.02186523654
0.02214360175
0.02242528201
0.02271086864
0.0230015963
0.02329925451
0.02360309822
0.02391468677
0.02423654304
0.02456616765
0.02490986822
0.02526344471
0.02563306508
0.02601433989
0.02641550365
0.02683189561
0.02726479534
0.02772200764
0.02819798195
0.02869295215
0.02920932821
0.02975187595
0.03031379593
0.03089357887
0.03148755318
0.03209036727
0.03269254595
0.03328180699
0.03383897396
0.03433833837
0.03474803371
0.03503049724
0.03511821598
0.03489079315
0.03429790244
0.03329182918
0.03180642284
0.02939935927
0.02644989476
0.022976302
0.01871086664
0.01451092907
0.01035234722
0.006798051874
0.003837754005
0.001866489196
0.0006108850195
0.007292809584
0.007416224851
0.007649087248
0.007970173878
0.008362621448
0.008809805484
0.009295447748
0.009807022785
0.01033159704
0.01085681263
0.0113701708
0.01184820215
0.01217531386
0.01248283027
0.0128952864
0.0133369464
0.01379063456
0.01424740711
0.01470184739
0.01515139032
0.01559290998
0.01602610615
0.0164491484
0.01686259428
0.01726548928
0.01765860603
0.018041801
0.01841538013
0.01878034011
0.01913657903
0.01948461325
0.01982553816
0.02015960742
0.02048730506
0.02080931035
0.02112630064
0.02143901697
0.02174817425
0.02205418597
0.02235786934
0.02265980992
0.02296075078
0.0232613383
0.02356242388
0.02386475355
0.02416970438
0.02447740764
0.02478877535
0.02510446113
0.02542582979
0.02575485943
0.02609072649
0.02643515464
0.02679093268
0.0271552978
0.02753522239
0.02792606377
0.02833463996
0.02875609891
0.02919954298
0.02965982021
0.03013834504
0.03064374483
0.03116988405
0.03171702121
0.03228782027
0.03288754937
0.03350869242
0.03414958108
0.03480615682
0.03547250398
0.03613814876
0.03678951446
0.03740540356
0.03795739805
0.03841027288
0.03872250642
0.03881947019
0.03856807834
0.03791270042
0.03680059293
0.03515863347
0.0324978795
0.02923755871
0.02539786963
0.02068288237
0.01604029597
0.01144342396
0.007514526714
0.004242230793
0.002063206222
0.0006752687216
0.008043813087
0.008179937489
0.008436779735
0.008790931425
0.009223792706
0.009717027139
0.01025268018
0.01081693651
0.0113955307
0.01197483226
0.01254105535
0.01306831372
0.01342911094
0.01376829497
0.01422322526
0.01471036681
0.01521077515
0.0157145855
0.01621582342
0.01671165966
0.01719864641
0.01767645253
0.01814305909
0.01859908106
0.01904346562
0.019477065
0.01989972086
0.02031177065
0.02071431371
0.02110723762
0.02149111193
0.02186714482
0.02223561608
0.02259705957
0.02295222452
0.02330185803
0.02364677746
0.02398777133
0.02432529571
0.02466025199
0.02499328599
0.02532521733
0.02565675894
0.02598884989
0.02632231305
0.0266586673
0.02699805742
0.02734148935
0.02768968402
0.02804414679
0.02840705944
0.02877751363
0.02915741052
0.02954982609
0.02995171303
0.03037076173
0.03080185142
0.03125250222
0.03171736243
0.03220647176
0.03271414771
0.03324195037
0.03379939554
0.03437971585
0.03498319644
0.03561277561
0.03627426398
0.03695937149
0.03766625799
0.03839044699
0.03912541366
0.03985960563
0.04057804808
0.04125736059
0.04186619871
0.04236570997
0.04271009688
0.04281704586
0.04253976601
0.04181689818
0.04059026739
0.0387792212
0.03584446645
0.0322484023
0.02801330732
0.02281277715
0.0176921036
0.01262185203
0.008288362342
0.004679089887
0.002275672362
0.0007448069661
0.008854941735
0.009004792762
0.009287534678
0.009677398608
0.01015390911
0.01069688072
0.01128654838
0.01190770366
0.0125446426
0.01318236026
0.01380568062
0.0143861071
0.01478328668
0.01515667364
0.01565747857
0.01619374289
0.01674461182
0.01729922582
0.01785100797
0.01839684376
0.01893293768
0.0194589252
0.01997258382
0.02047459051
0.02096378629
0.02144110932
0.0219063853
0.02235998571
0.02280312074
0.02323566663
0.02365825037
0.02407220198
0.02447782944
0.02487572047
0.02526669983
0.02565158998
0.02603129068
0.02640666997
0.02677822992
0.02714696279
0.02751357954
0.02787898245
0.02824395632
0.02860953494
0.02897662413
0.02934689595
0.02972050977
0.03009857297
0.03048187918
0.03087208555
0.03127159389
0.03167940424
0.03209760949
0.03252959579
0.03297200853
0.03343331361
0.03390787388
0.03440396778
0.03491570395
0.03545413449
0.03601300387
0.03659402954