/*--------------------------------*- C++ -*----------------------------------*\
| =========                 |                                                 |
| \\      /  F ield         | foam-extend: Open Source CFD                    |
|  \\    /   O peration     | Version:     3.2                                |
|   \\  /    A nd           | Web:         http://www.foam-extend.org         |
|    \\/     M anipulation  | For copyright notice see file Copyright         |
\*---------------------------------------------------------------------------*/
FoamFile
{
    version     2.0;
    format      ascii;
    class       volScalarField;
    location    "0";
    object      nut;
}
// * * * * * * * * * * * * * * * * * * * * * * * * * * * * * * * * * * * * * //

dimensions      [0 2 -1 0 0 0 0];

internalField   nonuniform List<scalar> 
50432
(
7.642685942e-07
7.584394178e-07
7.496535419e-07
7.414235305e-07
7.360198253e-07
7.341113332e-07
7.349237172e-07
7.367861103e-07
7.373107143e-07
7.340029268e-07
7.241192104e-07
7.055020625e-07
6.860931986e-07
6.682061422e-07
6.507803426e-07
6.362494218e-07
6.230251253e-07
6.099429333e-07
5.965141435e-07
5.824977504e-07
5.679513354e-07
5.528315195e-07
5.373232431e-07
5.214309618e-07
5.053257612e-07
4.890472817e-07
4.727020065e-07
4.563810039e-07
4.401011203e-07
4.239683484e-07
4.080305704e-07
3.923058684e-07
3.768489262e-07
3.617002179e-07
3.468781521e-07
3.324101042e-07
3.183017404e-07
3.045752936e-07
2.912439535e-07
2.783106495e-07
2.657837509e-07
2.536639765e-07
2.419521455e-07
2.30640842e-07
2.19731823e-07
2.092061858e-07
1.990710883e-07
1.893110953e-07
1.799196524e-07
1.708855119e-07
1.621854146e-07
1.53819239e-07
1.457714834e-07
1.380180885e-07
1.305675116e-07
1.233732927e-07
1.164496014e-07
1.097652551e-07
1.033187897e-07
9.707539984e-08
9.104432708e-08
8.521033137e-08
7.95435118e-08
7.40501568e-08
6.872878587e-08
6.355943678e-08
5.852811124e-08
5.365127241e-08
4.892541326e-08
4.43545462e-08
3.994091179e-08
3.569990674e-08
3.163787512e-08
2.777127557e-08
2.411810103e-08
2.069045131e-08
1.750226663e-08
1.456863545e-08
1.192614342e-08
9.555227433e-09
7.444327041e-09
5.591432041e-09
4.077340085e-09
2.798783228e-09
1.744971997e-09
1.06017159e-09
5.260291055e-10
2.587431496e-10
9.515975983e-11
3.48578937e-11
9.914278081e-12
9.914278081e-12
2.353992927e-06
2.336038715e-06
2.308977693e-06
2.283628766e-06
2.266985031e-06
2.261106761e-06
2.263608953e-06
2.269345234e-06
2.270961046e-06
2.260772863e-06
2.230330426e-06
2.172988498e-06
2.113208038e-06
2.058114836e-06
2.004442332e-06
1.959686228e-06
1.918954605e-06
1.878660672e-06
1.837299197e-06
1.794127869e-06
1.749324042e-06
1.702754106e-06
1.654987688e-06
1.606038512e-06
1.556433532e-06
1.506294843e-06
1.455950419e-06
1.405680756e-06
1.355537742e-06
1.305847841e-06
1.256758532e-06
1.208325511e-06
1.160717205e-06
1.114058279e-06
1.068405431e-06
1.023842979e-06
9.803883753e-07
9.381100993e-07
8.970487754e-07
8.572134264e-07
8.186298305e-07
7.813002013e-07
7.45227062e-07
7.103875716e-07
6.767871415e-07
6.443675499e-07
6.131508442e-07
5.830894828e-07
5.541632776e-07
5.263375851e-07
4.995407657e-07
4.73772445e-07
4.489848771e-07
4.251039575e-07
4.021557357e-07
3.799971116e-07
3.58671729e-07
3.380835429e-07
3.182280445e-07
2.989980307e-07
2.804219663e-07
2.62452911e-07
2.449987682e-07
2.280789066e-07
2.116887663e-07
1.957668623e-07
1.80270079e-07
1.652491241e-07
1.506931956e-07
1.36614652e-07
1.230203943e-07
1.099578454e-07
9.744654539e-08
8.553718779e-08
7.428519196e-08
6.372782607e-08
5.390802679e-08
4.48722675e-08
3.673323418e-08
2.943067131e-08
2.2928972e-08
1.722194471e-08
1.255845104e-08
8.62041954e-09
5.374617994e-09
3.265391831e-09
1.620201069e-09
7.969443578e-10
2.93097745e-10
1.07364395e-10
3.053656876e-11
3.053656876e-11
4.070990174e-06
4.0399402e-06
3.993140927e-06
3.94930255e-06
3.920518911e-06
3.910353045e-06
3.914680329e-06
3.924600642e-06
3.927395023e-06
3.909775602e-06
3.857128519e-06
3.757961515e-06
3.654577319e-06
3.559299256e-06
3.466478147e-06
3.389077039e-06
3.31863586e-06
3.248951621e-06
3.177421178e-06
3.102760779e-06
3.025277139e-06
2.944739194e-06
2.862132056e-06
2.777479459e-06
2.691692717e-06
2.604982978e-06
2.517917442e-06
2.430981198e-06
2.34426398e-06
2.258330374e-06
2.173435433e-06
2.089675472e-06
2.007341774e-06
1.92664993e-06
1.847697995e-06
1.770631789e-06
1.695481493e-06
1.622365536e-06
1.551354173e-06
1.482463008e-06
1.415736623e-06
1.351178844e-06
1.288794037e-06
1.228542699e-06
1.170434189e-06
1.114367819e-06
1.060381717e-06
1.008393665e-06
9.583687496e-07
9.102470585e-07
8.63904698e-07
8.193410212e-07
7.764734558e-07
7.351738463e-07
6.954872422e-07
6.571661665e-07
6.202860968e-07
5.846809333e-07
5.50342878e-07
5.170865346e-07
4.849611299e-07
4.538854853e-07
4.237003292e-07
3.944391579e-07
3.660940853e-07
3.385587797e-07
3.117586769e-07
2.857814706e-07
2.6060848e-07
2.362610777e-07
2.127511985e-07
1.901608553e-07
1.685238406e-07
1.479278239e-07
1.284686471e-07
1.102107618e-07
9.32284226e-08
7.760200042e-08
6.352637414e-08
5.089733804e-08
3.96533136e-08
2.978359319e-08
2.171855752e-08
1.490813453e-08
9.294852501e-09
5.647161429e-09
2.801972155e-09
1.378233814e-09
5.068825936e-10
1.856757478e-10
5.280987464e-11
5.280987464e-11
5.925449773e-06
5.880255593e-06
5.812137831e-06
5.748329742e-06
5.706434282e-06
5.691637555e-06
5.697936048e-06
5.712375365e-06
5.716442672e-06
5.690797069e-06
5.614167642e-06
5.469827058e-06
5.319348222e-06
5.18066811e-06
5.045564168e-06
4.932904506e-06
4.830375231e-06
4.728947706e-06
4.624832975e-06
4.516162497e-06
4.403382707e-06
4.286157284e-06
4.165920087e-06
4.042705663e-06
3.917840455e-06
3.791631798e-06
3.664905268e-06
3.538366926e-06
3.412147383e-06
3.287068411e-06
3.163501247e-06
3.041586082e-06
2.921746885e-06
2.804297456e-06
2.689380518e-06
2.577208316e-06
2.46782478e-06
2.361402285e-06
2.25804309e-06
2.157769909e-06
2.060647629e-06
1.966681823e-06
1.875878842e-06
1.788181191e-06
1.703602491e-06
1.621996187e-06
1.543417777e-06
1.467747589e-06
1.394934806e-06
1.324892224e-06
1.257439512e-06
1.192575727e-06
1.130180685e-06
1.070067849e-06
1.012302792e-06
9.565253035e-07
9.028452426e-07
8.510208463e-07
8.010407646e-07
7.526351473e-07
7.058756455e-07
6.606441014e-07
6.167086905e-07
5.741181675e-07
5.328610539e-07
4.927825808e-07
4.537742177e-07
4.159636054e-07
3.793235534e-07
3.438851703e-07
3.096658275e-07
2.767848972e-07
2.452915655e-07
2.15313438e-07
1.869900155e-07
1.604151093e-07
1.35696799e-07
1.129520672e-07
9.24645659e-08
7.40826205e-08
5.771660161e-08
4.335092397e-08
3.161201973e-08
2.169924235e-08
1.352893996e-08
8.219614879e-09
4.078355525e-09
2.006061153e-09
7.377830014e-10
2.702566871e-10
7.686637558e-11
7.686637558e-11
7.928376923e-06
7.867906156e-06
7.776763152e-06
7.691386581e-06
7.635329571e-06
7.615531238e-06
7.623958754e-06
7.643278865e-06
7.648721008e-06
7.61440665e-06
7.511874858e-06
7.318744109e-06
7.117400249e-06
6.93184333e-06
6.751071402e-06
6.600330396e-06
6.463144062e-06
6.327431891e-06
6.188124182e-06
6.042720788e-06
5.891819048e-06
5.734968955e-06
5.574089048e-06
5.409225546e-06
5.242153261e-06
5.073283413e-06
4.90372064e-06
4.734409666e-06
4.565525252e-06
4.398166947e-06
4.232831472e-06
4.069706406e-06
3.90935903e-06
3.752209214e-06
3.598447924e-06
3.448359149e-06
3.302001668e-06
3.159606122e-06
3.021309337e-06
2.887141703e-06
2.757190042e-06
2.631461809e-06
2.509965503e-06
2.392624194e-06
2.279456108e-06
2.17026515e-06
2.065125578e-06
1.963877268e-06
1.866452227e-06
1.772733773e-06
1.68248062e-06
1.595691507e-06
1.512205622e-06
1.431773379e-06
1.354482513e-06
1.279851055e-06
1.208026e-06
1.138683863e-06
1.071809458e-06
1.00704172e-06
9.444765195e-07
8.839557584e-07
8.251692508e-07
7.681822317e-07
7.129793425e-07
6.593534991e-07
6.071594855e-07
5.565680878e-07
5.075429246e-07
4.601256197e-07
4.143394164e-07
3.703440373e-07
3.282052945e-07
2.880939267e-07
2.501965893e-07
2.146388036e-07
1.815651826e-07
1.511322511e-07
1.237195417e-07
9.912411062e-08
7.722603175e-08
5.800445171e-08
4.229754994e-08
2.903404448e-08
1.810200735e-08
1.099801828e-08
5.456925814e-09
2.684152184e-09
9.871692355e-10
3.616091543e-10
1.028488337e-10
1.028488337e-10
1.00916579e-05
1.00146875e-05
9.898675863e-06
9.790004043e-06
9.718651714e-06
9.693451346e-06
9.704178336e-06
9.728769996e-06
9.735697043e-06
9.692019912e-06
9.561512018e-06
9.315684976e-06
9.059403851e-06
8.823217181e-06
8.593121101e-06
8.401249968e-06
8.226631938e-06
8.053890303e-06
7.876572076e-06
7.691494938e-06
7.499419213e-06
7.299772111e-06
7.094995648e-06
6.885148655e-06
6.672490205e-06
6.457543722e-06
6.241715246e-06
6.026207275e-06
5.811242252e-06
5.598219741e-06
5.387771995e-06
5.180137775e-06
4.976039145e-06
4.776010539e-06
4.58029503e-06
4.389254091e-06
4.20296254e-06
4.02171395e-06
3.845682481e-06
3.674906813e-06
3.509497459e-06
3.349463907e-06
3.194816977e-06
3.045458746e-06
2.901412414e-06
2.762428383e-06
2.628601169e-06
2.49972696e-06
2.37571921e-06
2.2564294e-06
2.141550408e-06
2.03108063e-06
1.924815376e-06
1.822436959e-06
1.724057052e-06
1.629062181e-06
1.537639449e-06
1.449377106e-06
1.364255823e-06
1.281816017e-06
1.202179717e-06
1.125145688e-06
1.050319109e-06
9.777830141e-07
9.075178542e-07
8.392600416e-07
7.728247379e-07
7.084293284e-07
6.460275051e-07
5.85672249e-07
5.273931454e-07
4.713934977e-07
4.177570749e-07
3.667012024e-07
3.18463465e-07
2.732036328e-07
2.31105777e-07
1.923691306e-07
1.574767828e-07
1.261704159e-07
9.829738176e-08
7.383113705e-08
5.383856092e-08
3.695606896e-08
2.304119333e-08
1.399885993e-08
6.945864081e-09
3.416531006e-09
1.256521266e-09
4.602752762e-10
1.309114406e-10
1.309114406e-10
1.242813058e-05
1.233333961e-05
1.219046835e-05
1.205663627e-05
1.196876408e-05
1.19377292e-05
1.195093975e-05
1.1981225e-05
1.198975583e-05
1.193596635e-05
1.177524259e-05
1.147250041e-05
1.115688375e-05
1.086601393e-05
1.058264482e-05
1.034635069e-05
1.013130419e-05
9.918568524e-06
9.700196666e-06
9.472269515e-06
9.235723428e-06
8.989853e-06
8.737665633e-06
8.479233782e-06
8.217339551e-06
7.952627549e-06
7.686829352e-06
7.421425864e-06
7.15669103e-06
6.894348448e-06
6.635176755e-06
6.379469989e-06
6.128117392e-06
5.881777132e-06
5.640748558e-06
5.405476836e-06
5.176054104e-06
4.952841906e-06
4.736054723e-06
4.525740192e-06
4.322034411e-06
4.124949066e-06
3.93449748e-06
3.750559062e-06
3.573162381e-06
3.402000049e-06
3.237188469e-06
3.078476639e-06
2.925757974e-06
2.778849573e-06
2.637373204e-06
2.501326893e-06
2.370458559e-06
2.244376963e-06
2.123219633e-06
2.00623106e-06
1.893641664e-06
1.784944369e-06
1.680115368e-06
1.578588672e-06
1.480514566e-06
1.385645221e-06
1.293494406e-06
1.204164381e-06
1.117631068e-06
1.033569855e-06
9.51753107e-07
8.724485403e-07
7.95599125e-07
7.212701087e-07
6.494979265e-07
5.805329515e-07
5.144783474e-07
4.516017561e-07
3.921957689e-07
3.36457147e-07
2.846125784e-07
2.369074239e-07
1.939366197e-07
1.553820413e-07
1.210556986e-07
9.092490268e-08
6.630354221e-08
4.551232865e-08
2.837580925e-08
1.723994818e-08
8.554006356e-09
4.207543885e-09
1.547437551e-09
5.66840582e-10
1.612207325e-10
1.612207325e-10
1.495166066e-05
1.483762239e-05
1.466574115e-05
1.450473448e-05
1.439901986e-05
1.436168335e-05
1.43775763e-05
1.441401097e-05
1.442427398e-05
1.435956255e-05
1.416620386e-05
1.380198992e-05
1.342228735e-05
1.307235645e-05
1.273144928e-05
1.244717567e-05
1.218846401e-05
1.19325324e-05
1.166982017e-05
1.139561244e-05
1.11110357e-05
1.081524132e-05
1.051184735e-05
1.020094095e-05
9.885869132e-06
9.567407398e-06
9.247638916e-06
8.928345288e-06
8.609856086e-06
8.294244882e-06
7.982448414e-06
7.674820427e-06
7.372430723e-06
7.076071109e-06
6.786101719e-06
6.503058108e-06
6.227051125e-06
5.958515723e-06
5.697709935e-06
5.444691069e-06
5.199622859e-06
4.962519365e-06
4.733396612e-06
4.512109525e-06
4.298692474e-06
4.092775657e-06
3.894499109e-06
3.703560865e-06
3.519832699e-06
3.343094568e-06
3.172891443e-06
3.009220949e-06
2.851779819e-06
2.700097373e-06
2.554339066e-06
2.41359598e-06
2.278145324e-06
2.147377059e-06
2.021262545e-06
1.899120869e-06
1.781132829e-06
1.667000278e-06
1.556138254e-06
1.44866978e-06
1.344565892e-06
1.243436061e-06
1.145006435e-06
1.049599087e-06
9.571454097e-07
8.677238977e-07
7.813783845e-07
6.984100815e-07
6.189430999e-07
5.432994259e-07
4.718310618e-07
4.047747209e-07
3.424031203e-07
2.850114413e-07
2.333154217e-07
1.869323418e-07
1.456360403e-07
1.093871907e-07
7.976646666e-08
5.475360025e-08
3.413751312e-08
2.074051711e-08
1.029089608e-08
5.06188505e-09
1.861644516e-09
6.819374784e-10
1.939565785e-10
1.939565785e-10
1.76772239e-05
1.75423974e-05
1.733918364e-05
1.71488268e-05
1.702384128e-05
1.697969863e-05
1.699848874e-05
1.704156514e-05
1.705369902e-05
1.697719123e-05
1.674858487e-05
1.631797775e-05
1.586905857e-05
1.545533818e-05
1.505228648e-05
1.471619215e-05
1.441031951e-05
1.410773369e-05
1.379713121e-05
1.34729377e-05
1.313648499e-05
1.278676976e-05
1.242806959e-05
1.206048754e-05
1.168798076e-05
1.13114661e-05
1.093340649e-05
1.055590829e-05
1.017936116e-05
9.806216659e-06
9.437582291e-06
9.073876284e-06
8.716363455e-06
8.365979951e-06
8.023151555e-06
7.688511451e-06
7.362190693e-06
7.044703524e-06
6.736355012e-06
6.437212913e-06
6.147470809e-06
5.867145322e-06
5.5962554e-06
5.33462952e-06
5.082308317e-06
4.838854579e-06
4.604433867e-06
4.378689172e-06
4.16146889e-06
3.95251287e-06
3.751283133e-06
3.55777687e-06
3.371635534e-06
3.192302641e-06
3.019973808e-06
2.853574429e-06
2.693432247e-06
2.538826016e-06
2.389721876e-06
2.24531479e-06
2.105818513e-06
1.970880548e-06
1.8398093e-06
1.712750218e-06
1.589669058e-06
1.470104101e-06
1.353731573e-06
1.240932261e-06
1.131625048e-06
1.025902739e-06
9.238171576e-07
8.257244237e-07
7.317712731e-07
6.423383872e-07
5.578419355e-07
4.785617821e-07
4.04820358e-07
3.369666537e-07
2.758468803e-07
2.210085512e-07
1.721842777e-07
1.293275647e-07
9.430722933e-08
6.473472565e-08
4.03604975e-08
2.452134068e-08
1.216684075e-08
5.984624544e-09
2.20100681e-09
8.062490023e-10
2.293132477e-10
2.293132477e-10
2.062099502e-05
2.046371599e-05
2.022666124e-05
2.000460446e-05
1.985880522e-05
1.980731154e-05
1.982923075e-05
1.987948062e-05
1.989363514e-05
1.980438658e-05
1.953771062e-05
1.903539492e-05
1.851171765e-05
1.80291008e-05
1.755892929e-05
1.716686549e-05
1.681005618e-05
1.645708103e-05
1.609475422e-05
1.571657307e-05
1.532409122e-05
1.491613825e-05
1.449770408e-05
1.406890895e-05
1.363436897e-05
1.319515369e-05
1.275413617e-05
1.231377356e-05
1.187452039e-05
1.14392365e-05
1.100921381e-05
1.058494019e-05
1.016789109e-05
9.759158557e-06
9.359239278e-06
8.968871879e-06
8.588209238e-06
8.217851236e-06
7.858153742e-06
7.509195797e-06
7.171203219e-06
6.844195398e-06
6.528194437e-06
6.223000251e-06
5.92866024e-06
5.644664385e-06
5.371205817e-06
5.107868074e-06
4.854474308e-06
4.610721042e-06
4.37598071e-06
4.150250035e-06
3.933110761e-06
3.723913734e-06
3.522887145e-06
3.328777438e-06
3.141966932e-06
2.961614274e-06
2.787679965e-06
2.619224905e-06
2.456498447e-06
2.299089393e-06
2.146190976e-06
1.997972867e-06
1.854395119e-06
1.714919125e-06
1.579167192e-06
1.447583519e-06
1.32007348e-06
1.196745337e-06
1.077659542e-06
9.63231519e-07
8.536324404e-07
7.493063819e-07
6.507388173e-07
5.58256216e-07
4.722347035e-07
3.93081387e-07
3.217833963e-07
2.57812893e-07
2.008579601e-07
1.508643599e-07
1.100121217e-07
7.551493734e-08
4.708169239e-08
2.860485599e-08
1.419297305e-08
6.981238322e-09
2.56753836e-09
9.405128743e-10
2.675005626e-10
2.675005626e-10
2.380044368e-05
2.361891459e-05
2.334530954e-05
2.308901493e-05
2.292073563e-05
2.286130239e-05
2.288660122e-05
2.294459887e-05
2.296093581e-05
2.285792646e-05
2.255013305e-05
2.197036779e-05
2.136594733e-05
2.080891819e-05
2.026625326e-05
1.98137391e-05
1.940191514e-05
1.899451651e-05
1.857632432e-05
1.813983331e-05
1.768683664e-05
1.721598342e-05
1.673303297e-05
1.623812405e-05
1.573658451e-05
1.522964881e-05
1.472063299e-05
1.421237306e-05
1.370539364e-05
1.320299548e-05
1.270666973e-05
1.221697947e-05
1.173562765e-05
1.126387468e-05
1.080229384e-05
1.035173763e-05
9.912382508e-06
9.484920847e-06
9.069763386e-06
8.667001351e-06
8.276895378e-06
7.899467847e-06
7.53474427e-06
7.18249371e-06
6.842770877e-06
6.514987113e-06
6.199365329e-06
5.895424849e-06
5.602961558e-06
5.321625188e-06
5.050691412e-06
4.790156447e-06
4.539537548e-06
4.298085472e-06
4.066063594e-06
3.842025076e-06
3.626411188e-06
3.41825085e-06
3.217498474e-06
3.023070167e-06
2.835253726e-06
2.653574552e-06
2.477101489e-06
2.306030366e-06
2.14031508e-06
1.979333976e-06
1.822651128e-06
1.670779222e-06
1.523609045e-06
1.381265548e-06
1.243818507e-06
1.111747396e-06
9.852497809e-07
8.648382064e-07
7.510729991e-07
6.443309655e-07
5.450462238e-07
4.536886511e-07
3.713975778e-07
2.975637807e-07
2.3182725e-07
1.741253852e-07
1.269743436e-07
8.715820997e-08
5.434098438e-08
3.301529648e-08
1.638131698e-08
8.057640738e-09
2.963414331e-09
1.085525877e-09
3.087451439e-10
3.087451439e-10
2.723443818e-05
2.702671756e-05
2.671363601e-05
2.64203625e-05
2.622780339e-05
2.615979496e-05
2.618874397e-05
2.625510968e-05
2.627380376e-05
2.615593193e-05
2.580372923e-05
2.514031382e-05
2.444868589e-05
2.381128703e-05
2.319032489e-05
2.267252073e-05
2.220127765e-05
2.173509841e-05
2.125656829e-05
2.075709913e-05
2.023874283e-05
1.969995359e-05
1.914732171e-05
1.858100594e-05
1.800710288e-05
1.742702508e-05
1.684456704e-05
1.626297395e-05
1.568284611e-05
1.510796055e-05
1.454002353e-05
1.397967939e-05
1.342887678e-05
1.288905798e-05
1.236087896e-05
1.184531525e-05
1.134256874e-05
1.085343172e-05
1.037837418e-05
9.917500515e-06
9.471108963e-06
9.039225134e-06
8.62187822e-06
8.218803965e-06
7.830064973e-06
7.454987651e-06
7.093827074e-06
6.746033214e-06
6.411372502e-06
6.089444135e-06
5.779419277e-06
5.4812936e-06
5.194514706e-06
4.918225249e-06
4.652726606e-06
4.396363186e-06
4.149639923e-06
3.911445631e-06
3.681728141e-06
3.459247175e-06
3.244332053e-06
3.036439701e-06
2.834504611e-06
2.638750869e-06
2.449125718e-06
2.264917811e-06
2.085628324e-06
1.911843915e-06
1.743439614e-06
1.5805584e-06
1.423280115e-06
1.272153416e-06
1.127404371e-06
9.896194785e-07
8.594399094e-07
7.37296837e-07
6.236870154e-07
5.191481169e-07
4.249838577e-07
3.404971142e-07
2.652759332e-07
1.992486822e-07
1.452945565e-07
9.973363995e-08
6.218145339e-08
3.777883567e-08
1.874485915e-08
9.220219651e-09
3.390984028e-09
1.242148582e-09
3.532917557e-10
3.532917557e-10
3.094335737e-05
3.070734834e-05
3.035162982e-05
3.001841688e-05
2.979963413e-05
2.972236398e-05
2.975525541e-05
2.983065913e-05
2.985189906e-05
2.971797487e-05
2.931780748e-05
2.856404491e-05
2.77782277e-05
2.705402474e-05
2.634849693e-05
2.576017566e-05
2.522475639e-05
2.469509058e-05
2.415139188e-05
2.358390257e-05
2.299495397e-05
2.238278977e-05
2.175489777e-05
2.111145835e-05
2.045939835e-05
1.980032272e-05
1.913854269e-05
1.84777454e-05
1.781861292e-05
1.716543663e-05
1.652015516e-05
1.588350061e-05
1.525768701e-05
1.464435303e-05
1.404424401e-05
1.34584683e-05
1.288725532e-05
1.233150522e-05
1.179175201e-05
1.126811432e-05
1.076093098e-05
1.027023109e-05
9.79604783e-06
9.338080948e-06
8.896401576e-06
8.470244388e-06
8.059899194e-06
7.664741062e-06
7.284504616e-06
6.918734466e-06
6.566488904e-06
6.227763012e-06
5.901929164e-06
5.588013255e-06
5.286357707e-06
4.99508146e-06
4.714758215e-06
4.444125457e-06
4.183123914e-06
3.9303444e-06
3.686161084e-06
3.449956933e-06
3.220521334e-06
2.998108888e-06
2.782659655e-06
2.573365413e-06
2.369659405e-06
2.172208185e-06
1.980869761e-06
1.795806585e-06
1.617109373e-06
1.4454015e-06
1.280939821e-06
1.124390707e-06
9.764826462e-07
8.377055319e-07
7.086237682e-07
5.898482505e-07
4.828602413e-07
3.868676791e-07
3.014025092e-07
2.263833437e-07
1.650814809e-07
1.133158556e-07
7.064962831e-08
4.292374257e-08
2.129762589e-08
1.047587433e-08
3.852784843e-09
1.411310461e-09
4.014047575e-10
4.014047575e-10
3.494921168e-05
3.468264947e-05
3.428088046e-05
3.390453056e-05
3.365742471e-05
3.357015135e-05
3.360730082e-05
3.369246613e-05
3.371645573e-05
3.356519403e-05
3.311322191e-05
3.226187901e-05
3.137433175e-05
3.055637518e-05
2.975951141e-05
2.909502744e-05
2.849029405e-05
2.789205895e-05
2.72779743e-05
2.663701915e-05
2.597182665e-05
2.528041312e-05
2.457123569e-05
2.384449812e-05
2.310802397e-05
2.236362595e-05
2.161617343e-05
2.086983088e-05
2.012536866e-05
1.93876337e-05
1.865881561e-05
1.793974126e-05
1.72329113e-05
1.654017655e-05
1.586237882e-05
1.520076997e-05
1.455560909e-05
1.392791289e-05
1.331828451e-05
1.27268579e-05
1.21540158e-05
1.159979106e-05
1.106422115e-05
1.054696695e-05
1.004810881e-05
9.566782314e-06
9.103314796e-06
8.657000421e-06
8.227539458e-06
7.814417565e-06
7.41657112e-06
7.033994571e-06
6.665979038e-06
6.311424315e-06
5.970717148e-06
5.641732963e-06
5.325119729e-06
5.019451491e-06
4.724661302e-06
4.439157546e-06
4.163362832e-06
3.896580247e-06
3.637442454e-06
3.386237017e-06
3.142896232e-06
2.90650725e-06
2.676429941e-06
2.45341715e-06
2.237308503e-06
2.028287484e-06
1.826456551e-06
1.63251978e-06
1.446767279e-06
1.269951684e-06
1.102895794e-06
9.461529207e-07
8.003605354e-07
6.662086183e-07
5.453701929e-07
4.369506593e-07
3.404213695e-07
2.556903992e-07
1.864525414e-07
1.279854599e-07
7.97957631e-08
4.848054937e-08
2.405476647e-08
1.183205639e-08
4.351557312e-09
1.594015395e-09
4.533696738e-10
4.533696738e-10
3.927577362e-05
3.897621216e-05
3.852470588e-05
3.810176548e-05
3.7824069e-05
3.772599156e-05
3.776773999e-05
3.786344839e-05
3.78904078e-05
3.772042055e-05
3.721249623e-05
3.625576074e-05
3.525833896e-05
3.433912288e-05
3.34436108e-05
3.269686658e-05
3.20172698e-05
3.134497577e-05
3.065487008e-05
2.993456745e-05
2.918702698e-05
2.841001943e-05
2.761304889e-05
2.679634433e-05
2.596869785e-05
2.513214657e-05
2.429216265e-05
2.34534261e-05
2.261680266e-05
2.178773929e-05
2.096869666e-05
2.0160604e-05
1.936627153e-05
1.85877792e-05
1.782607303e-05
1.708255985e-05
1.635753084e-05
1.565212855e-05
1.49670308e-05
1.430238812e-05
1.365863063e-05
1.303579526e-05
1.24339241e-05
1.185263606e-05
1.129202142e-05
1.075110878e-05
1.023026598e-05
9.728699804e-06
9.246073423e-06
8.781808818e-06
8.334710697e-06
7.904772817e-06
7.491198546e-06
7.092751474e-06
6.709866227e-06
6.340155216e-06
5.984346627e-06
5.640837977e-06
5.309554032e-06
4.98870614e-06
4.678769227e-06
4.378960107e-06
4.087742171e-06
3.805438582e-06
3.531973256e-06
3.266320335e-06
3.007760446e-06
2.757139631e-06
2.514277664e-06
2.279380742e-06
2.052564009e-06
1.834618701e-06
1.62587084e-06
1.427166236e-06
1.239429545e-06
1.063282579e-06
8.994417241e-07
7.486823772e-07
6.12884675e-07
4.910432699e-07
3.825640696e-07
2.873437699e-07
2.095345633e-07
1.438295088e-07
8.967413506e-08
5.448223268e-08
2.7032643e-08
1.329681404e-08
4.890261373e-09
1.791347639e-09
5.094948877e-10
5.094948877e-10
4.394871899e-05
4.361351637e-05
4.310829086e-05
4.263502994e-05
4.232429374e-05
4.221454726e-05
4.226126282e-05
4.23683584e-05
4.239852538e-05
4.220831343e-05
4.163995739e-05
4.056939161e-05
3.945329877e-05
3.842471638e-05
3.742265824e-05
3.658706803e-05
3.582661432e-05
3.507433222e-05
3.430211926e-05
3.34961166e-05
3.265963541e-05
3.179018121e-05
3.089838886e-05
2.998451459e-05
2.905839655e-05
2.812231422e-05
2.718239086e-05
2.624386328e-05
2.530770021e-05
2.43799967e-05
2.346350617e-05
2.255926843e-05
2.167042802e-05
2.079931239e-05
1.994698009e-05
1.911500534e-05
1.830371397e-05
1.751438446e-05
1.674777528e-05
1.600405488e-05
1.528370454e-05
1.458676558e-05
1.391328511e-05
1.326283669e-05
1.263552136e-05
1.203025211e-05
1.144744058e-05
1.088619916e-05
1.034615095e-05
9.826649163e-06
9.326356288e-06
8.845265343e-06
8.382484913e-06
7.936631482e-06
7.508191388e-06
7.094492972e-06
6.696351058e-06
6.311972502e-06
5.94127312e-06
5.58225145e-06
5.235438924e-06
4.899959173e-06
4.574092765e-06
4.258201314e-06
3.952199684e-06
3.654939962e-06
3.365617184e-06
3.085178055e-06
2.813420904e-06
2.550576462e-06
2.296773571e-06
2.052897608e-06
1.819313385e-06
1.596967343e-06
1.386894153e-06
1.189789607e-06
1.006455327e-06
8.377589638e-07
6.858043489e-07
5.494665207e-07
4.280807031e-07
3.215313012e-07
2.344645259e-07
1.609420282e-07
1.003433669e-07
6.096440918e-08
3.024892755e-08
1.487883979e-08
5.472093942e-09
2.004478251e-09
5.701134715e-10
5.701134715e-10
4.899577915e-05
4.862208194e-05
4.805883645e-05
4.753122637e-05
4.718480529e-05
4.706245556e-05
4.711453592e-05
4.723393034e-05
4.726756168e-05
4.705550583e-05
4.642187992e-05
4.522837063e-05
4.398410596e-05
4.283740142e-05
4.172026717e-05
4.078871798e-05
3.994093395e-05
3.910225996e-05
3.824136626e-05
3.734280245e-05
3.641025996e-05
3.544095785e-05
3.444675229e-05
3.342792892e-05
3.239545571e-05
3.135187392e-05
3.030400999e-05
2.925770213e-05
2.821403032e-05
2.717978957e-05
2.615804949e-05
2.51499693e-05
2.415905468e-05
2.318790034e-05
2.223768641e-05
2.131016789e-05
2.040570801e-05
1.95257321e-05
1.86710857e-05
1.784195664e-05
1.703888144e-05
1.626190617e-05
1.551108337e-05
1.478593762e-05
1.408658154e-05
1.341180333e-05
1.276206186e-05
1.213636761e-05
1.15343004e-05
1.095513915e-05
1.039739277e-05
9.861053454e-06
9.345127433e-06
8.848072303e-06
8.370430254e-06
7.909222813e-06
7.465358379e-06
7.036837883e-06
6.623567475e-06
6.223315844e-06
5.836675452e-06
5.462669287e-06
5.099380461e-06
4.747212113e-06
4.406069331e-06
4.074672374e-06
3.752123839e-06
3.439479149e-06
3.136513473e-06
2.84348404e-06
2.560534487e-06
2.288651868e-06
2.02824289e-06
1.780362683e-06
1.546164739e-06
1.326424755e-06
1.122036411e-06
9.339669986e-07
7.645619528e-07
6.125671218e-07
4.772413866e-07
3.584558773e-07
2.613903748e-07
1.794245714e-07
1.118667746e-07
6.796554704e-08
3.372270701e-08
1.658752212e-08
6.100507874e-09
2.234672044e-09
6.355851633e-10
6.355851633e-10
5.444690562e-05
5.403163196e-05
5.340572143e-05
5.2819411e-05
5.243444813e-05
5.229848613e-05
5.23563608e-05
5.248903868e-05
5.252641176e-05
5.22907632e-05
5.158664193e-05
5.02603463e-05
4.88776484e-05
4.760336488e-05
4.636194155e-05
4.532675094e-05
4.438464495e-05
4.345266255e-05
4.249598835e-05
4.149745297e-05
4.046115854e-05
3.938401472e-05
3.827919677e-05
3.71470221e-05
3.599967896e-05
3.483999132e-05
3.367554513e-05
3.251282813e-05
3.135304047e-05
3.020373312e-05
2.906831725e-05
2.794808102e-05
2.684692015e-05
2.576771802e-05
2.471178608e-05
2.368107457e-05
2.267598714e-05
2.16981077e-05
2.074837586e-05
1.982700032e-05
1.893457734e-05
1.807115809e-05
1.723680095e-05
1.643097761e-05
1.565381323e-05
1.490396117e-05
1.418193137e-05
1.348662423e-05
1.281757278e-05
1.217397576e-05
1.155417615e-05
1.09581653e-05
1.038483886e-05
9.832482838e-06
9.301699737e-06
8.789179711e-06
8.295932224e-06
7.819735797e-06
7.360486136e-06
6.915703685e-06
6.486046818e-06
6.070429827e-06
5.666722553e-06
5.275372989e-06
4.896275662e-06
4.528008454e-06
4.169574117e-06
3.822145496e-06
3.485472749e-06
3.159841722e-06
2.845412033e-06
2.543280553e-06
2.253899236e-06
1.978440605e-06
1.718186486e-06
1.473998877e-06
1.246870886e-06
1.037877423e-06
8.496248699e-07
6.807195404e-07
5.303378614e-07
3.983366253e-07
2.904719001e-07
1.993868222e-07
1.243127434e-07
7.552719417e-08
3.747459633e-08
1.843300111e-08
6.779232461e-09
2.483295091e-09
7.062985017e-10
7.062985017e-10
6.033444787e-05
5.987426915e-05
5.918067664e-05
5.853096632e-05
5.810437602e-05
5.795371195e-05
5.801784482e-05
5.816486964e-05
5.8206284e-05
5.794515391e-05
5.716489344e-05
5.569518063e-05
5.416296657e-05
5.275089013e-05
5.137522718e-05
5.022809763e-05
4.918411829e-05
4.815135724e-05
4.709123437e-05
4.598472372e-05
4.4836371e-05
4.36427517e-05
4.241846576e-05
4.116386492e-05
3.989245538e-05
3.86073665e-05
3.731700449e-05
3.602855867e-05
3.474335894e-05
3.346977281e-05
3.221158028e-05
3.097020883e-05
2.974997542e-05
2.855407524e-05
2.738396153e-05
2.624179543e-05
2.512802424e-05
2.404440312e-05
2.299197332e-05
2.197096609e-05
2.098204216e-05
2.002525824e-05
1.910067902e-05
1.820771907e-05
1.734651708e-05
1.651558078e-05
1.571547528e-05
1.494498203e-05
1.420358362e-05
1.34903921e-05
1.28035713e-05
1.214311163e-05
1.150778932e-05
1.089570503e-05
1.030752641e-05
9.73958573e-06
9.193001595e-06
8.665312314e-06
8.156402315e-06
7.663523917e-06
7.187406688e-06
6.726847517e-06
6.279485906e-06
5.845818288e-06
5.425727786e-06
5.017638503e-06
4.620445355e-06
4.235448012e-06
3.862369615e-06
3.501526918e-06
3.153096801e-06
2.818294744e-06
2.497621571e-06
2.192376595e-06
1.90398025e-06
1.633387746e-06
1.381699577e-06
1.15010689e-06
9.414979021e-07
7.543282241e-07
5.876852263e-07
4.414102156e-07
3.218816848e-07
2.209472456e-07
1.377551332e-07
8.369422481e-08
4.152686095e-08
2.042622867e-08
7.512295562e-09
2.751822836e-09
7.826731316e-10
7.826731316e-10
6.669334519e-05
6.618466633e-05
6.541797324e-05
6.469978726e-05
6.422823684e-05
6.406169366e-05
6.413258575e-05
6.429510614e-05
6.434088533e-05
6.405223365e-05
6.31897383e-05
6.156512637e-05
5.987142592e-05
5.83105249e-05
5.678987513e-05
5.552184485e-05
5.43678362e-05
5.322622819e-05
5.205437458e-05
5.083124419e-05
4.956186182e-05
4.824244204e-05
4.688912354e-05
4.550229512e-05
4.409688646e-05
4.267635674e-05
4.124999814e-05
3.982575768e-05
3.840510543e-05
3.699729077e-05
3.560649212e-05
3.423428739e-05
3.288544853e-05
3.156350748e-05
3.027007064e-05
2.900752693e-05
2.777637077e-05
2.657854234e-05
2.541519261e-05
2.42865772e-05
2.319342647e-05
2.213580314e-05
2.111377869e-05
2.012670599e-05
1.917473835e-05
1.825622624e-05
1.73717943e-05
1.652009558e-05
1.570055812e-05
1.491220039e-05
1.41529927e-05
1.342292445e-05
1.272064289e-05
1.20440485e-05
1.139387931e-05
1.076608101e-05
1.01618901e-05
9.578585465e-06
9.016039333e-06
8.471214439e-06
7.944917244e-06
7.435817835e-06
6.941306931e-06
6.461933286e-06
5.997567707e-06
5.546468204e-06
5.107413225e-06
4.681839419e-06
4.269440744e-06
3.870567341e-06
3.485414731e-06
3.115326498e-06
2.760856252e-06
2.423440244e-06
2.104648614e-06
1.805537244e-06
1.527322618e-06
1.271321418e-06
1.040726265e-06
8.338299995e-07
6.496238061e-07
4.879322663e-07
3.558061286e-07
2.442337908e-07
1.522737172e-07