/*--------------------------------*- C++ -*----------------------------------*\
| =========                 |                                                 |
| \\      /  F ield         | foam-extend: Open Source CFD                    |
|  \\    /   O peration     | Version:     3.2                                |
|   \\  /    A nd           | Web:         http://www.foam-extend.org         |
|    \\/     M anipulation  | For copyright notice see file Copyright         |
\*---------------------------------------------------------------------------*/
FoamFile
{
    version     2.0;
    format      ascii;
    class       volScalarField;
    location    "0";
    object      tpphi;
}
// * * * * * * * * * * * * * * * * * * * * * * * * * * * * * * * * * * * * * //

dimensions      [0 0 0 0 0 0 0];

internalField   nonuniform List<scalar> 
50432
(
0.0001722423077
0.0001714982311
0.0001705189643
0.0001699265021
0.000170133682
0.0001712489353
0.0001730835323
0.0001752517099
0.0001771653969
0.0001781593114
0.0001774495265
0.000174313253
0.0001704068968
0.0001669251137
0.0001640765988
0.0001622962441
0.0001611333919
0.0001602358873
0.0001594261414
0.0001586153942
0.000157767866
0.0001568601617
0.0001558953505
0.0001548655619
0.0001537813862
0.0001526412695
0.0001514517589
0.0001502181214
0.0001489368565
0.0001476172565
0.0001462614117
0.0001448663814
0.0001434363119
0.000141973767
0.0001404792294
0.0001389529429
0.000137393907
0.0001358022522
0.0001341795793
0.0001325251806
0.0001308391435
0.000129120514
0.0001273685931
0.0001255822311
0.0001237589372
0.0001218938735
0.0001199893923
0.0001180428899
0.0001160529994
0.0001140136068
0.0001119143912
0.000109763584
0.0001075522746
0.0001052653207
0.0001029221559
0.0001004798688
9.797303594e-05
9.535764916e-05
9.266709992e-05
8.98500718e-05
8.693888301e-05
8.392729427e-05
8.076994521e-05
7.750516617e-05
7.413507631e-05
7.064719288e-05
6.701522614e-05
6.328467943e-05
5.946236305e-05
5.55632253e-05
5.160320955e-05
4.761271145e-05
4.361686315e-05
3.965323508e-05
3.576353093e-05
3.198457677e-05
2.835544825e-05
2.490584294e-05
2.169613486e-05
1.873858538e-05
1.603342251e-05
1.358422391e-05
1.145558058e-05
9.54562216e-06
7.841702317e-06
6.393182438e-06
5.077565814e-06
3.945365216e-06
2.92330017e-06
2.008367964e-06
1.172446869e-06
4.032567014e-07
0.0005305165973
0.0005282247968
0.0005252085967
0.0005233837776
0.0005240219043
0.0005274569509
0.0005331076193
0.0005397857359
0.0005456800062
0.0005487413221
0.0005465551423
0.0005368952325
0.000524863422
0.0005141393222
0.000505365726
0.0004998821274
0.0004963004731
0.0004935361053
0.0004910420394
0.0004885448895
0.0004859344522
0.0004831386686
0.0004801669924
0.0004769951822
0.0004736558562
0.0004701442288
0.000466480465
0.0004626807878
0.0004587344152
0.0004546699685
0.0004504938854
0.0004461971088
0.0004417924094
0.0004372876838
0.0004326844187
0.000427983365
0.0004231814414
0.0004182790496
0.0004132811199
0.0004081854731
0.0004029923781
0.0003976988966
0.0003923028755
0.000386800774
0.0003811849199
0.0003754404123
0.0003695744962
0.0003635791526
0.0003574501709
0.0003511687199
0.0003447030105
0.0003380783958
0.0003312674308
0.0003242234763
0.0003170063887
0.0003094839985
0.0003017628035
0.000293707256
0.0002854202036
0.0002767435887
0.0002677769533
0.0002585010801
0.0002487762564
0.0002387205419
0.0002283404638
0.0002175975745
0.0002064108999
0.0001949205932
0.0001831476304
0.0001711380532
0.0001589409681
0.0001466499956
0.0001343425441
0.0001221343329
0.0001101538117
9.851440719e-05
8.733647453e-05
7.671148412e-05
6.682539148e-05
5.77159624e-05
4.938389914e-05
4.184022115e-05
3.528387252e-05
2.94010865e-05
2.415291159e-05
1.969138383e-05
1.563920604e-05
1.215196056e-05
9.003939157e-06
6.185893306e-06
3.611206398e-06
1.24205473e-06
0.0009174742329
0.0009135107983
0.0009082945885
0.0009051387502
0.0009062423252
0.0009121828872
0.0009219551406
0.0009335042609
0.0009436977989
0.0009489920318
0.0009452112572
0.0009285054305
0.000907697644
0.0008891514096
0.0008739783717
0.0008644950482
0.0008583009432
0.0008535202517
0.0008492070196
0.0008448884541
0.0008403739695
0.0008355389476
0.0008303997374
0.0008249144157
0.0008191393927
0.0008130663921
0.000806730287
0.0008001591336
0.0007933342856
0.0007863052404
0.0007790831316
0.0007716522956
0.0007640348182
0.0007562443556
0.0007482834792
0.0007401534872
0.0007318490512
0.0007233708655
0.000714727457
0.0007059150567
0.0006969341295
0.0006877795944
0.0006784477274
0.0006689324053
0.0006592203594
0.0006492858208
0.0006391413184
0.0006287729844
0.000618173537
0.0006073104094
0.0005961286259
0.0005846720319
0.000572893164
0.0005607113645
0.0005482301492
0.0005352209442
0.0005218679266
0.0005079366805
0.0004936050704
0.0004785997518
0.0004630928723
0.0004470511976
0.0004302331089
0.0004128427785
0.0003948914943
0.0003763127652
0.000356966555
0.0003370952439
0.000316735108
0.0002959657717
0.0002748721597
0.0002536161789
0.0002323316994
0.0002112188459
0.000190499759
0.0001703705985
0.0001510395064
0.0001326646714
0.0001155676846
9.981385804e-05
8.540440623e-05
7.235838614e-05
6.101985129e-05
5.084617413e-05
4.176999202e-05
3.405423576e-05
2.704640842e-05
2.101557378e-05
1.557139251e-05
1.069787024e-05
6.245212377e-06
2.14800671e-06
0.001335411596
0.001329642696
0.001322050345
0.001317456926
0.001319063213
0.001327709882
0.001341933693
0.001358743788
0.001373580792
0.001381286709
0.001375783677
0.001351467839
0.001321181474
0.001294186867
0.001272102049
0.001258298784
0.001249283076
0.001242324635
0.001236046595
0.001229760791
0.001223189822
0.001216152301
0.001208672024
0.001200687972
0.001192282251
0.001183442814
0.001174220421
0.001164655908
0.001154722134
0.001144491146
0.001133979147
0.00112316334
0.00111207587
0.001100736615
0.001089149318
0.001077315868
0.001065228509
0.001052888253
0.001040307509
0.001027480793
0.001014408781
0.001001084077
0.0009875012614
0.0009736514212
0.0009595152437
0.0009450552211
0.00093028959
0.0009151981651
0.0008997703477
0.0008839587357
0.0008676833104
0.0008510078901
0.0008338633903
0.0008161324114
0.0007979656237
0.0007790303309
0.0007595946085
0.0007393172569
0.0007184571633
0.0006966164665
0.0006740457328
0.0006506965883
0.0006262173497
0.0006009051959
0.0005747765569
0.0005477346527
0.0005195756564
0.00049065236
0.0004610175642
0.0004307871646
0.0004000847721
0.0003691460468
0.0003381658409
0.0003074354417
0.0002772781818
0.0002479795776
0.0002198425863
0.0001930974562
0.000168212273
0.0001452821002
0.0001243087057
0.0001053198275
8.88162458e-05
7.400814987e-05
6.079749131e-05
4.956697385e-05
3.936686844e-05
3.058880556e-05
2.266463447e-05
1.557107486e-05
9.090096187e-06
3.12648897e-06
0.001786808915
0.001779090006
0.001768931279
0.001762785188
0.001764934434
0.001776503859
0.001795535619
0.001818027881
0.001837880106
0.001848190785
0.001840827612
0.001808292507
0.001767768711
0.001731649357
0.001702099405
0.001683630345
0.001671567137
0.001662256595
0.001653856445
0.001645445908
0.001636653812
0.00162723746
0.001617228692
0.001606545862
0.001595298829
0.001583471476
0.001571131719
0.001558334198
0.0015450426
0.001531353321
0.001517288045
0.001502816266
0.001487980998
0.001472808835
0.001457304787
0.001441471381
0.001425298239
0.001408786716
0.001391953415
0.001374790998
0.00135730037
0.001339471635
0.001321297541
0.001302766162
0.001283851658
0.001264503842
0.001244747116
0.001224554471
0.001203911725
0.001182755455
0.001160978592
0.001138666527
0.001115726825
0.001092002401
0.001067694855
0.001042359033
0.001016353626
0.0009892221017
0.000961310856
0.0009320875425
0.0009018874241
0.0008706457758
0.0008378920376
0.0008040238413
0.0007690631706
0.0007328805318
0.0006952032001
0.0006565032186
0.0006168512361
0.0005764023231
0.0005353218736
0.0004939252058
0.0004524730361
0.000411355113
0.0003710040625
0.0003318019114
0.0002941540229
0.0002583684741
0.0002250715734
0.000194390518
0.0001663276732
0.0001409201532
0.0001188380124
9.902446735e-05
8.134832722e-05
6.632165771e-05
5.267370128e-05
4.092846777e-05
3.032575953e-05
2.083442698e-05
1.216274065e-05
4.183308263e-06
0.002274344985
0.002264519949
0.002251589384
0.002243766314
0.002246501988
0.002261228164
0.002285452796
0.002314082138
0.002339351101
0.002352475079
0.002343102842
0.002301690439
0.002250109606
0.00220413498
0.002166522236
0.002143013839
0.00212765915
0.002115808199
0.002105116043
0.002094410666
0.002083219621
0.002071233989
0.0020584943
0.002044896628
0.002030580809
0.002015526328
0.001999819632
0.00198353027
0.00196661202
0.001949187581
0.001931284553
0.001912864107
0.001893980992
0.00187466906
0.001854934686
0.001834781089
0.001814195058
0.001793178317
0.001771752001
0.001749906768
0.00172764377
0.001704950412
0.001681817463
0.001658229743
0.001634154361
0.001609527437
0.00158438003
0.001558677762
0.001532402583
0.001505473761
0.001477755017
0.00144935504
0.001420156172
0.001389958469
0.001359018538
0.001326769763
0.001293668704
0.001259134263
0.001223607352
0.001186410371
0.001147970062
0.001108204038
0.001066513346
0.001023404112
0.0009789043198
0.0009328491415
0.000884891439
0.0008356320538
0.0007851609111
0.0007336753932
0.0006813860221
0.0006286941517
0.0005759316356
0.0005235945661
0.0004722336127
0.0004223350393
0.0003744148136
0.0003288650725
0.0002864830145
0.0002474305429
0.0002117106683
0.0001793706316
0.0001512633138
0.0001260435847
0.0001035444577
8.441771719e-05
6.704587567e-05
5.209592065e-05
3.860023226e-05
2.651916169e-05
1.548138023e-05
5.324736233e-06
0.002800913066
0.002788813287
0.00277288897
0.002763254663
0.002766623714
0.002784759371
0.002814592615
0.00284985037
0.002880969733
0.002897132243
0.002885590097
0.00283458968
0.002771066587
0.002714447678
0.002668126638
0.002639175455
0.002620265769
0.002605671026
0.002592503366
0.002579319425
0.002565537371
0.002550776765
0.002535087517
0.002518341641
0.002500711351
0.002482171378
0.002462828187
0.002442767428
0.002421932177
0.002400473542
0.002378425513
0.00235574027
0.002332485239
0.00230870211
0.002284398732
0.00225957907
0.002234226855
0.002208344209
0.002181957162
0.002155054208
0.002127636766
0.002099689325
0.002071200516
0.002042151646
0.002012502207
0.00198217353
0.001951203866
0.001919550876
0.001887192332
0.001854028811
0.00181989248
0.001784917194
0.001748958054
0.001711768823
0.001673665519
0.001633950341
0.001593185555
0.001550655522
0.001506903237
0.00146109422
0.001413754011
0.001364781152
0.001313438016
0.001260347911
0.001205545297
0.001148827186
0.001089766069
0.001029101897
0.0009669454147
0.0009035397042
0.0008391440282
0.0007742526643
0.0007092742982
0.0006448198805
0.0005815675743
0.0005201162259
0.0004611012623
0.0004050056102
0.0003528110395
0.0003047169383
0.0002607270142
0.0002208994454
0.0001862845763
0.0001552258455
0.0001275176046
0.0001039625425
8.25686826e-05
6.415743688e-05
4.753715711e-05
3.265901478e-05
1.906570923e-05
6.557546628e-06
0.003369638051
0.003355081413
0.003335923666
0.003324333114
0.00332838625
0.00335020435
0.003386095229
0.003428512066
0.003465950211
0.003485394516
0.00347150874
0.003410152696
0.003333731248
0.003265615878
0.003209889358
0.003175059641
0.003152310347
0.003134752142
0.003118910792
0.003103049853
0.003086469356
0.00306871161
0.003049836662
0.003029690539
0.003008480421
0.00298617591
0.002962905087
0.002938770994
0.002913705148
0.00288788934
0.002861364462
0.002834072984
0.002806096022
0.002777483732
0.002748245557
0.002718386266
0.002687886288
0.002656748174
0.002625003241
0.002592637646
0.002559653097
0.002526030932
0.002491757474
0.002456810235
0.002421140482
0.002384653573
0.002347395522
0.002309315398
0.002270386456
0.002230489087
0.00218942138
0.002147344367
0.002104083728
0.002059343229
0.002013503056
0.001965723717
0.001916681646
0.001865515896
0.001812879716
0.001757769185
0.001700816554
0.001641899763
0.001580131411
0.001516261368
0.001450331091
0.001382096376
0.001311042908
0.001238060885
0.001163283538
0.001087003308
0.001009532099
0.0009314645533
0.0008532923396
0.0007757504619
0.0006996547843
0.0006257257486
0.0005547278055
0.0004872419395
0.000424449269
0.0003665896675
0.0003136675959
0.0002657530451
0.000224109632
0.0001867444304
0.0001534100353
0.0001250721213
9.93342414e-05
7.718459496e-05
5.718956984e-05
3.92904229e-05
2.293699867e-05
7.889055501e-06
0.003983895009
0.003966684817
0.003944034772
0.00393033136
0.003935123349
0.003960918706
0.004003352194
0.004053501267
0.004097764074
0.004120752914
0.004104335876
0.004031795137
0.003941442695
0.00386091046
0.00379502546
0.003753846576
0.003726950274
0.003706191355
0.003687462258
0.003668710002
0.003649107018
0.003628112184
0.00360579649
0.003581977897
0.00355690135
0.003530530913
0.003503018012
0.003474484475
0.003444849334
0.00341432752
0.003382967377
0.00335070089
0.003317623961
0.003283795888
0.003249227837
0.003213925446
0.003177865576
0.003141051244
0.003103519474
0.0030652539
0.003026256543
0.002986505337
0.002945984114
0.002904666284
0.002862494232
0.002819356062
0.002775306179
0.002730284366
0.002684259002
0.002637088674
0.002588534666
0.002538787364
0.002487640671
0.002434744352
0.002380547896
0.002324058782
0.00226607675
0.00220558391
0.002143352593
0.002078195871
0.00201086125
0.001941204418
0.00186817621
0.001792663189
0.001714714372
0.001634041037
0.001550035113
0.001463749075
0.001375340441
0.001285154959
0.001193561395
0.001101262785
0.001008840428
0.0009171633116
0.0008271960255
0.0007397903423
0.0006558500653
0.0005760620879
0.0005018228363
0.0004334159114
0.0003708465867
0.0003141976124
0.0002649629518
0.0002207863851
0.0001813754073
0.0001478717276
0.0001174420465
9.125470391e-05
6.761475221e-05
4.645273983e-05
2.711822253e-05
9.327164628e-06
0.004647329218
0.00462725303
0.004600831095
0.004584845666
0.004590435661
0.004620526694
0.004670026589
0.00472852694
0.00478016079
0.004806977939
0.004787826988
0.004703206108
0.004597807362
0.004503864171
0.004427007405
0.004378971041
0.004347595724
0.004323379842
0.004301531806
0.004279656756
0.004256789305
0.004232298221
0.004206266317
0.004178481236
0.004149228716
0.004118466835
0.004086372238
0.004053087038
0.004018516786
0.003982912203
0.003946329685
0.003908689891
0.003870104693
0.003830643264
0.003790318629
0.003749137364
0.003707072479
0.003664127491
0.003620345591
0.003575707688
0.003530216138
0.003483845203
0.003436576019
0.00338837757
0.003339182647
0.003288860719
0.003237475252
0.003184955999
0.003131266075
0.003076240519
0.003019600858
0.002961569186
0.002901905083
0.00284019999
0.002776978251
0.002711082059
0.002643444335
0.002572877681
0.002500283042
0.002424275833
0.002345728042
0.002264471326
0.0021792818
0.002091193669
0.00200026411
0.001906156322
0.001808160972
0.001707505802
0.001604374563
0.00149917058
0.001392324027
0.001284655019
0.001176841655
0.001069897637
0.0009649481852
0.0008629869175
0.0007650681468
0.0006719931541
0.0005853909113
0.0005055922469
0.0004326033126
0.000366520639
0.0003090869777
0.0002575537298
0.0002115796797
0.0001724966644
0.0001369995577
0.0001064512621
7.887457195e-05
5.418846998e-05
3.163419409e-05
1.08804084e-05
0.005363877797
0.005340706161
0.00531021036
0.005291760217
0.005298212105
0.005332942725
0.005390074763
0.005457594992
0.005517190009
0.005548141961
0.00552603822
0.005428370067
0.005306720412
0.005198292588
0.005109585659
0.005054142807
0.005017929886
0.004989980278
0.004964763603
0.004939515746
0.004913122478
0.004884855235
0.004854809601
0.004822740476
0.004788977656
0.004753472753
0.00471642965
0.00467801237
0.004638111903
0.004597017627
0.004554794633
0.004511351346
0.004466816888
0.004421271097
0.004374729007
0.004327198208
0.004278647547
0.004229081086
0.004178548672
0.004127028273
0.004074522607
0.004021001968
0.003966444583
0.003910814656
0.003854034612
0.003795953797
0.00373664546
0.003676028524
0.003614060418
0.003550550745
0.003485178096
0.003418198809
0.003349335395
0.003278116301
0.003205146717
0.003129090318
0.00305102387
0.002969576894
0.002885789249
0.002798062867
0.002707404183
0.002613618897
0.002515294422
0.00241362442
0.002308674885
0.002200057085
0.00208695232
0.00197077763
0.001851745098
0.001730320236
0.001606999544
0.001482729587
0.001358293017
0.001234859833
0.001113728747
0.0009960465783
0.0008830301993
0.0007756044365
0.0006756494246
0.0005835470009
0.0004993042659
0.0004230326335
0.0003567435616
0.0002972646585
0.0002442020983
0.0001990930672
0.0001581228381
0.0001228644528
9.103584993e-05
6.254352066e-05
3.651171314e-05
1.255800445e-05
0.006137793068
0.006111278164
0.006076382343
0.006055270162
0.006062652947
0.006102394598
0.006167769806
0.006245032041
0.006313225594
0.00634864338
0.006323350449
0.006211590463
0.006072388856
0.005948316762
0.00584681095
0.005783368649
0.005741930826
0.00570994857
0.005681093563
0.005652202875
0.005622001512
0.005589655793
0.005555275091
0.005518578943
0.005479944729
0.00543931708
0.005396929294
0.005352969062
0.005307311644
0.005260288171
0.005211973125
0.00516226172
0.005111301705
0.005059184441
0.005005927128
0.004951538453
0.004895982767
0.004839264717
0.004781441346
0.00472248744
0.00466240611
0.004601163364
0.004538734287
0.004475077918
0.004410105491
0.004343644614
0.004275779104
0.004206416188
0.00413550715
0.004062834124
0.003988029327
0.003911386081
0.003832586862
0.003751092078
0.003667594238
0.00358056421
0.003491234116
0.003398035743
0.003302158983
0.003201775193
0.003098036021
0.002990719132
0.002878208127
0.002761868893
0.002641776946
0.002517487466
0.00238806363
0.002255126931
0.002118920053
0.001979975673
0.001838861927
0.001696661954
0.001554271328
0.001413028859
0.001274420641
0.001139758961
0.001010436263
0.000887510811
0.0007731340108
0.0006677427922
0.0005713452801
0.0004840689635
0.0004082155191
0.0003401548337
0.0002794362591
0.000227818771
0.0001809372429
0.0001405916792
0.0001041707566
7.156747452e-05
4.17797251e-05
1.436990841e-05
0.006973667794
0.006943541961
0.006903893856
0.006879906515
0.006888294723
0.006933448586
0.007007726911
0.007095511096
0.00717299158
0.007213232734
0.007184495288
0.00705751528
0.006899356516
0.006758387677
0.006643058306
0.006570976121
0.006523895093
0.006487557337
0.006454772713
0.00642194755
0.006387633217
0.0063508825
0.006311819665
0.006270126056
0.006226230445
0.006180069924
0.006131909562
0.00608196261
0.006030087341
0.005976659981
0.005921765156
0.005865283808
0.005807383809
0.00574816896
0.005687658806
0.005625863214
0.005562741683
0.005498299492
0.005432601451
0.005365618913
0.005297355413
0.005227772329
0.005156841355
0.00508451595
0.00501069526
0.004935183414
0.004858075647
0.004779266549
0.004698700772
0.004616130776
0.004531138696
0.004444057798
0.004354527314
0.004261934172
0.004167065187
0.004068182983
0.00396668748
0.003860796896
0.003751863169
0.003637808622
0.003519941742
0.003398009914
0.003270176609
0.003137993728
0.003001547071
0.002860331241
0.002713281833
0.002562241163
0.002407484966
0.002249618459
0.002089287152
0.00192772169
0.001765939611
0.00160546205
0.001447977487
0.001294976919
0.001148042423
0.001008376381
0.0008784231875
0.0007586792765
0.000649153879
0.0005499918461
0.0004638083082
0.0003864787852
0.0003174912577
0.0002588442472
0.0002055781629
0.0001597381428
0.0001183572406
8.131388377e-05
4.746949272e-05
1.632687293e-05
0.007876462432
0.007842436579
0.007797655724
0.007770563038
0.007780037164
0.007831036541
0.007914930762
0.008014079282
0.008101590207
0.008147040886
0.008114583158
0.007971164617
0.007792530991
0.007633312657
0.007503053017
0.007421639242
0.007368463214
0.007327421258
0.007290392414
0.007253317783
0.007214561197
0.007173052818
0.007128933
0.007081841835
0.007032263602
0.006980127248
0.006925732158
0.006869319191
0.006810728272
0.006750384332
0.006688382952
0.006624589661
0.006559194064
0.0064923134
0.006423969743
0.00635417424
0.006282881144
0.006210096418
0.006135893263
0.006060239323
0.005983138591
0.005904547445
0.005824433914
0.005742745432
0.005659368089
0.005574080657
0.0054869907
0.005397979161
0.005306983527
0.005213724215
0.00511772926
0.005019375073
0.004918254183
0.00481367415
0.004706523649
0.004594840388
0.004480205516
0.004360606586
0.004237570554
0.004108750774
0.003975625125
0.003837908289
0.003693525985
0.003544231019
0.003390120298
0.003230623
0.00306453692
0.002893942881
0.002719152309
0.002540848776
0.002359761355
0.002177280008
0.001994554001
0.001813301393
0.001635429248
0.001462621587
0.001296665296
0.001138918416
0.0009921417883
0.0008568961121
0.0007331918141
0.0006211924975
0.0005238518414
0.0004365114202
0.0003585929295
0.0002923536149
0.0002321918286
0.0001804174672
0.0001336794907
9.1840588e-05
5.361478165e-05
1.844051152e-05
0.008851534573
0.008813296466
0.008762971934
0.00873252529
0.008743172272
0.008800485152
0.008894765117
0.009006187796
0.009104532198
0.009155609475
0.00911913362
0.00895796048
0.008757212781
0.008578283903
0.00843189868
0.00834040623
0.008280647239
0.008234524465
0.008192911609
0.008151247299
0.008107692815
0.008061045877
0.008011464215
0.007958543367
0.007902827562
0.007844236952
0.007783107984
0.007719711335
0.007653867112
0.007586052851
0.007516375968
0.007444685342
0.007371194052
0.00729603385
0.007219229542
0.007140793656
0.007060674781
0.00697887962
0.006895490434
0.006810470862
0.006723825391
0.006635504999
0.006545473758
0.006453672594
0.006359973495
0.006264127846
0.006166256527
0.006066225743
0.005963965242
0.005859160827
0.00575128211
0.005640752098
0.005527112878
0.005409586287
0.005289171016
0.005163661847
0.005034835672
0.004900430909
0.004762163546
0.004617396432
0.0044677904
0.004313024813
0.004150768601
0.003982991561
0.003809802597
0.003630560219
0.003443913398
0.003252200551
0.003055771659
0.002855394916
0.002651889652
0.0024468179
0.0022414712
0.002037780299
0.001837888349
0.001643687843
0.001457186878
0.001279911613
0.001114964671
0.0009629761618
0.0008239578043
0.0006980934545
0.0005887024442
0.0004905496548
0.0004029851905
0.0003285457339
0.0002609361774
0.000202752373
0.0001502284361
0.0001032100574
6.025206081e-05
2.072336746e-05
0.009904670736
0.009861883142
0.009805571107
0.009771501988
0.009783415725
0.009847547566
0.009953044754
0.01007772426
0.01018776946
0.0102449238
0.01020410813
0.01002375896
0.009799126743
0.009598909299
0.009435107484
0.009332729463
0.009265860479
0.009214250118
0.009167686256
0.009121064817
0.009072328316
0.009020131428
0.008964650649
0.008905433395
0.008843088645
0.008777527053
0.008709125095
0.008638185651
0.008564507428
0.008488624775
0.008410657888
0.008330437669
0.008248202547
0.008164099949
0.008078157633
0.007990389618
0.007900738375
0.007809211405
0.007715900756
0.007620765742
0.007523811383
0.007424982825
0.007324239864
0.007221516399
0.007116669186
0.007009420033
0.006899904199
0.006787971972
0.00667354474
0.006556270927
0.006435557036
0.006311876406
0.006184716641
0.006053206994
0.005918464978
0.005778023004
0.005633869373
0.005483473426
0.005328755316
0.005166764128
0.004999358299
0.004826179042
0.004644617942
0.004456879158
0.00426308455
0.004062516308
0.003853662657
0.003639140237
0.003419340667
0.003195123538
0.002967405665
0.002737934925
0.002508156526
0.002280230928
0.002056556272
0.001839250216
0.001630559775
0.001432192689
0.001247620721
0.001077548953
0.000921990496
0.000781151082
0.0006587449693
0.0005489141764
0.0004509314842
0.0003676353844
0.0002919817912
0.0002268754054
0.0001681022858
0.0001154897636
6.74207188e-05
2.318898825e-05
0.0110421207
0.01099441939
0.0109316405
0.01089365889
0.0109069408
0.01097843752
0.01109604998
0.01123504765
0.01135773042
0.01142144835
0.01137594541
0.01117488499
0.01092445606
0.0107012457
0.01051863292
0.01040449784
0.01032994963
0.01027241235
0.01022050111
0.01016852567
0.01011419228
0.01005600112
0.009994148941
0.009928131191
0.009858626785
0.009785536116
0.009709278893
0.009630192782
0.009548053369
0.009463456371
0.009376535786
0.009287103097
0.009195424113
0.009101663193
0.009005851283
0.00890800401
0.00880805724
0.008706019335
0.008601992914
0.008495932619
0.008387844045
0.008277666039
0.008165353781
0.008050833579
0.007933945737
0.007814380118
0.007692287512
0.007567501015
0.007439932988
0.007309191479
0.007174614835
0.007036730751
0.00689496799
0.006748355807
0.00659814005
0.006441569755
0.006280861555
0.006113194175
0.005940708275
0.005760114059
0.005573483385
0.005380416264
0.005178004732
0.004968706072
0.004752656139
0.004529054689
0.004296216336
0.004057058213
0.003812016914
0.003562050745
0.003308181806
0.003052358703
0.002796192608
0.002542092091
0.002292730692
0.002050469261
0.001817812861
0.001596665347
0.00139089718
0.001201294411
0.001027871659
0.0008708582815
0.0007343950807
0.0006119513463
0.0005027163458
0.0004098545422
0.0003255129088
0.0002529297216
0.0001874071113
0.0001287525798
7.516329769e-05
2.5852006e-05
0.01227063462
0.0122176262
0.01214786271
0.01210565538
0.01212041499
0.01219986624
0.01233056391
0.01248502605
0.01262135814
0.01269216514
0.01264159969
0.01241816988
0.01213987896
0.01189183486
0.01168890513
0.0115620717
0.01147922949
0.01141529078
0.01135760404
0.01129984597
0.01123946761
0.01117480227
0.0111060686
0.01103270591
0.01095546864
0.01087424612
0.01078950474
0.01070161974
0.01061034174
0.01051633273
0.01041974162
0.01032035891
0.01021847999
0.01011428751
0.01000781584
0.009899082371
0.009788015817
0.009674625474
0.009559025379
0.009441165127
0.009321050936
0.009198614849
0.009073807059
0.008946545675
0.008816653236
0.008683785096
0.008548108826
0.00840943895
0.008267678079
0.008122390654
0.007972841407
0.007819616746
0.007662081876
0.007499158052
0.007332229732
0.007158239885
0.006979651763
0.006793330203
0.006601654028
0.00640096743
0.006193572775
0.005979025574
0.005754094329
0.005521509715
0.005281422701
0.00503294401
0.004774200746
0.004508434593
0.004236130719
0.003958354048
0.003676240397
0.003391955167
0.003107288785
0.00282491779
0.002547813174
0.002278598448
0.002020057381
0.001774305644
0.001545644314
0.001334946899
0.001142229641
0.0009677474159
0.0008161017202
0.0006800352557
0.0005586470898
0.0004554537547
0.0003617285189
0.0002810699395
0.000208257476
0.0001430772137
8.352574541e-05
2.872822425e-05
0.01359750304
0.01353876263
0.01346145536
0.013414684
0.01343103962
0.01351908221
0.0136639127
0.0138350774
0.01398615158
0.0140646152
0.01400858191
0.01376099182
0.01345260829
0.01317774229
0.01295286902
0.01281232064
0.01272052039
0.01264966775
0.01258574314
0.01252173948
0.01245483219
0.01238317434
0.01230700825
0.01222571258
0.01214012338
0.01205011797
0.0119562132
0.01185882487
0.01175767664
0.0116535021
0.01154646623
0.01143633691
0.01132344146
0.01120798226
0.01108999743
0.01096950621
0.01084642962
0.01072077797
0.01059267762
0.0104620727
0.01032897013
0.01019329458
0.01005499087
0.009913968249
0.009770030068
0.009622794412
0.009472446973
0.009318782217
0.009161692228
0.009000694343
0.008834973792
0.00866518039
0.008490610701
0.00831006933
0.008125090442
0.00793228644
0.007734386934
0.007527917744
0.007315514926
0.007093127356
0.006863306361
0.00662555939
0.00637630551
0.006118570674
0.005852522177
0.00557717458
0.005290452464
0.004995948049
0.004694198964
0.004386385291
0.004073765663
0.003758739635
0.00344329124
0.003130386441
0.002823317494
0.002524991599
0.002238493544
0.001966167777
0.001712780464
0.00147929957
0.001265743093
0.001072393469
0.0009043497721
0.0007535699451
0.0006190556346
0.0005047036283
0.0004008435414
0.0003114630559
0.0002307771155
0.000158548674
9.255768853e-05
3.183471179e-05
0.0150306002
0.01496566889
0.01488021389
0.0148285131
0.01484659251
0.01494391427
0.01510400905
0.0152932135
0.01546021001
0.01554694324
0.01548500437
0.01521131974
0.01487043439
0.01456659912
0.01431802553
0.01416266417
0.01406118871
0.01398286862
0.01391220673
0.01384145746
0.01376749853
0.01368828837
0.01360409482
0.01351423106
0.01341962126
0.0133201298
0.01321632802
0.01310867554
0.01299686688
0.01288171294
0.01276339613
0.01264165982
0.01251686584
0.01238923792
0.01225881818
0.0121256279
0.01198957976
0.01185068516
0.01170908378
0.01156471387
0.01141758307
0.01126760811
0.011114728
0.01095884242
0.010799734
0.01063698057
0.01047078739
0.01030092727
0.01012728091
0.009949314795
0.009766128269
0.009578439636
0.009385471325
0.009185901952
0.008981427373
0.008768302958
0.008549546003
0.008321316171
0.00808652734
0.007840701423
0.007586658642
0.007323854532
0.007048330754
0.006763432176
0.006469343726
0.006164976106
0.005848035159
0.005522491703
0.005188940034
0.004848684602
0.004503116697
0.004154888771
0.003806193964
0.003460310832
0.003120878617
0.002791110921
0.002474417649
0.002173390341
0.001893297491
0.001635209078
0.001399144999
0.001185417458
0.0009996629398
0.0008329918024
0.0006843004717
0.0005578964338
0.0004430901023
0.0003442894373
0.0002550996715
0.0001752587754
0.0001023127266
3.51899039e-05
0.01657843074
0.0165068129
0.01641255785
0.01635553299
0.01637547419
0.01648281802
0.01665939914
0.0168680876
0.01705228118
0.01714794608
0.01707962883
0.01677776053
0.01640177128
0.01606664747
0.01579247611
0.01562111585
0.01550919059
0.01542280521
0.01534486665
0.01526683172
0.0151852566
0.01509788948
0.0150050258
0.014905908
0.0148015554
0.01469181845
0.01457732731
0.01445858892
0.01433526636
0.01420825403
0.01407775311
0.01394348057
0.01380583548
0.01366506461
0.01352121442
0.01337430838
0.0132242502
0.01307105242
0.01291486912
0.01275563221
0.01259335007
0.0124279309
0.01225930741
0.01208736894
0.01191187575
0.0117323622
0.01154905468
0.01136170259
0.01117017438
0.01097388155
0.01077183073
0.01056481418
0.01035197426
0.0101318535
0.009906322414
0.00967125074
0.009429966495
0.009178233868
0.008919266807
0.008648126074
0.008367922317
0.008078055002
0.007774158163
0.007459921122
0.007135547848
0.006799836868
0.006450257779
0.006091190305
0.005723289943
0.005347995475
0.004966841463
0.004582753504
0.004198150585
0.003816648884
0.003442262406
0.003078535685
0.002729229776
0.00239720309
0.002088266663
0.00180360066
0.001543227028
0.001307490118
0.001102606855
0.0009187721528
0.0007547687933
0.0006153478415
0.0004887189117
0.0003797438901
0.0002813694849
0.0001933066831
0.0001128487505