/*--------------------------------*- C++ -*----------------------------------*\
| =========                 |                                                 |
| \\      /  F ield         | foam-extend: Open Source CFD                    |
|  \\    /   O peration     | Version:     3.2                                |
|   \\  /    A nd           | Web:         http://www.foam-extend.org         |
|    \\/     M anipulation  | For copyright notice see file Copyright         |
\*---------------------------------------------------------------------------*/
FoamFile
{
    version     2.0;
    format      ascii;
    class       volVectorField;
    location    "0";
    object      tppsi;
}
// * * * * * * * * * * * * * * * * * * * * * * * * * * * * * * * * * * * * * //

dimensions      [0 0 0 0 0 0 0];

internalField   nonuniform List<vector> 
50432
(
(5.889458315e-08 -2.809841509e-10 1.106934278e-05)
(5.633826502e-08 -6.855107233e-10 2.489377953e-05)
(5.439632962e-08 -1.082883089e-09 3.841514262e-05)
(5.754132074e-08 -1.420180698e-09 5.007862637e-05)
(4.367040071e-08 -1.675519627e-09 5.974211767e-05)
(3.826854068e-08 -1.85376353e-09 6.754957741e-05)
(3.206253729e-08 -1.962707245e-09 7.37694695e-05)
(1.081609893e-08 -2.019790658e-09 7.86513229e-05)
(5.562822918e-10 -2.058983111e-09 8.246697788e-05)
(-1.465667409e-08 -2.140901574e-09 8.546521543e-05)
(-1.869031871e-08 -2.313288154e-09 8.785331244e-05)
(-2.034985259e-08 -2.582066318e-09 8.984026444e-05)
(-9.816015605e-09 -2.669208949e-09 9.115839486e-05)
(-1.771702734e-08 -2.418888366e-09 9.214836353e-05)
(-2.206653583e-08 -2.05878905e-09 9.312432499e-05)
(-2.28389241e-08 -1.713797902e-09 9.388164115e-05)
(-2.136228442e-08 -1.427434911e-09 9.444452584e-05)
(-1.884889929e-08 -1.209399569e-09 9.485337775e-05)
(-1.597111474e-08 -1.05069233e-09 9.513777706e-05)
(-1.307701864e-08 -9.352232451e-10 9.531441153e-05)
(-1.034848676e-08 -8.457691469e-10 9.540353647e-05)
(-7.873398779e-09 -7.723755333e-10 9.541275581e-05)
(-5.672576391e-09 -7.071067692e-10 9.535787753e-05)
(-3.758900678e-09 -6.457376118e-10 9.524222626e-05)
(-2.108264605e-09 -5.861405828e-10 9.507727669e-05)
(-7.085771406e-10 -5.277713322e-10 9.486596062e-05)
(4.658303692e-10 -4.711644863e-10 9.46143568e-05)
(1.441878354e-09 -4.169577826e-10 9.432770796e-05)
(2.233728371e-09 -3.657062632e-10 9.400646682e-05)
(2.870242531e-09 -3.178247992e-10 9.365598968e-05)
(3.369407443e-09 -2.736460134e-10 9.327873739e-05)
(3.744872114e-09 -2.334330094e-10 9.287447648e-05)
(4.014770642e-09 -1.972275532e-10 9.244588097e-05)
(4.19459617e-09 -1.649891049e-10 9.199503348e-05)
(4.29601363e-09 -1.366539079e-10 9.152258183e-05)
(4.330498916e-09 -1.120253387e-10 9.102927184e-05)
(4.307618998e-09 -9.088441616e-11 9.051469659e-05)
(4.236906063e-09 -7.298118213e-11 8.997955905e-05)
(4.127366869e-09 -5.801111239e-11 8.94244645e-05)
(3.986192865e-09 -4.567296478e-11 8.88494948e-05)
(3.819622444e-09 -3.568033278e-11 8.825475506e-05)
(3.633280093e-09 -2.776727905e-11 8.763986499e-05)
(3.432328327e-09 -2.169871068e-11 8.700474617e-05)
(3.220905076e-09 -1.726443138e-11 8.634879896e-05)
(3.002899813e-09 -1.429966575e-11 8.567122158e-05)
(2.781399221e-09 -1.264077911e-11 8.497011113e-05)
(2.559730353e-09 -1.209983462e-11 8.424695566e-05)
(2.340269578e-09 -1.251931357e-11 8.35004547e-05)
(2.125026064e-09 -1.375423272e-11 8.273103769e-05)
(1.915541005e-09 -1.569380119e-11 8.193575293e-05)
(1.712986012e-09 -1.822335958e-11 8.111188045e-05)
(1.518708085e-09 -2.118022259e-11 8.026304151e-05)
(1.333422045e-09 -2.447650442e-11 7.938614243e-05)
(1.157662335e-09 -2.802269386e-11 7.84760179e-05)
(9.918747916e-10 -3.167687049e-11 7.75417856e-05)
(8.362007486e-10 -3.539241201e-11 7.656702376e-05)
(6.905340783e-10 -3.903696813e-11 7.556647148e-05)
(5.553032559e-10 -4.253509181e-11 7.452387394e-05)
(4.2967461e-10 -4.580487793e-11 7.345303131e-05)
(3.140130626e-10 -4.873824841e-11 7.233439971e-05)
(2.076432581e-10 -5.127445874e-11 7.118133125e-05)
(1.102191348e-10 -5.334526941e-11 6.999084458e-05)
(2.201396393e-11 -5.480623385e-11 6.874487789e-05)
(-5.796276683e-11 -5.566263479e-11 6.745638015e-05)
(-1.298529923e-10 -5.585827129e-11 6.612369481e-05)
(-1.939616558e-10 -5.533279436e-11 6.473808557e-05)
(-2.499951749e-10 -5.396120286e-11 6.32817108e-05)
(-2.985659989e-10 -5.181737962e-11 6.176570838e-05)
(-3.397871245e-10 -4.889707654e-11 6.018300897e-05)
(-3.737067989e-10 -4.521634675e-11 5.85273907e-05)
(-4.003728365e-10 -4.080348563e-11 5.67900761e-05)
(-4.197816527e-10 -3.570964062e-11 5.496643721e-05)
(-4.320014234e-10 -2.998396562e-11 5.304779834e-05)
(-4.371305658e-10 -2.369681488e-11 5.102996265e-05)
(-4.354207005e-10 -1.693587116e-11 4.891201199e-05)
(-4.272663633e-10 -9.796420945e-12 4.669439058e-05)
(-4.132169356e-10 -2.396344537e-12 4.438538677e-05)
(-3.932379123e-10 5.206892241e-12 4.19676092e-05)
(-3.677972674e-10 1.283227233e-11 3.944396825e-05)
(-3.388893547e-10 2.023404791e-11 3.686547668e-05)
(-3.075384289e-10 2.726142287e-11 3.425516692e-05)
(-2.742799817e-10 3.379896198e-11 3.161930952e-05)
(-2.392775887e-10 3.925985139e-11 2.891375227e-05)
(-2.048161978e-10 4.360118288e-11 2.621700198e-05)
(-1.709737366e-10 4.682737069e-11 2.352716836e-05)
(-1.387850987e-10 4.720325691e-11 2.069095875e-05)
(-1.088632123e-10 4.617824419e-11 1.7864033e-05)
(-8.217563862e-11 4.200914921e-11 1.486438456e-05)
(-5.87730495e-11 3.563859063e-11 1.174263123e-05)
(-3.858721876e-11 2.70458546e-11 8.489284459e-06)
(-2.159613088e-11 2.349123662e-11 5.102055454e-06)
(-7.066425781e-12 2.349078511e-11 1.669433122e-06)
(1.813988344e-07 -8.654479704e-10 3.409423702e-05)
(1.735252218e-07 -2.111413979e-09 7.667432807e-05)
(1.675439448e-07 -3.335344606e-09 0.0001183209341)
(1.772307053e-07 -4.374241389e-09 0.0001542451609)
(1.34507443e-07 -5.160700545e-09 0.0001840092914)
(1.178693914e-07 -5.709702413e-09 0.0002080567338)
(9.875453025e-08 -6.045255564e-09 0.000227214373)
(3.331423085e-08 -6.221075888e-09 0.0002422507731)
(1.713382691e-09 -6.341790983e-09 0.0002540032184)
(-4.514343177e-08 -6.594104743e-09 0.0002632379691)
(-5.756729818e-08 -7.125065708e-09 0.0002705934506)
(-6.267876166e-08 -7.952918511e-09 0.0002767133814)
(-3.023391446e-08 -8.221323017e-09 0.0002807733019)
(-5.45695026e-08 -7.450320669e-09 0.0002838224645)
(-6.79662486e-08 -6.341193264e-09 0.0002868284841)
(-7.034525061e-08 -5.278599919e-09 0.0002891610631)
(-6.579711218e-08 -4.396584801e-09 0.0002908947816)
(-5.805573584e-08 -3.725022922e-09 0.0002921540699)
(-4.919198751e-08 -3.236195142e-09 0.0002930300368)
(-4.027799861e-08 -2.880543464e-09 0.0002935740815)
(-3.187395743e-08 -2.605019498e-09 0.0002938485916)
(-2.425053859e-08 -2.378962784e-09 0.0002938769878)
(-1.747187416e-08 -2.177931091e-09 0.0002937079594)
(-1.157763864e-08 -1.98891042e-09 0.0002933517466)
(-6.49358093e-09 -1.80534801e-09 0.000292843692)
(-2.182459923e-09 -1.625567232e-09 0.0002921928259)
(1.434785365e-09 -1.451214765e-09 0.0002914178711)
(4.441071466e-09 -1.284254879e-09 0.0002905349756)
(6.880016823e-09 -1.126397138e-09 0.0002895455336)
(8.840518461e-09 -9.789193681e-10 0.0002884660431)
(1.037797621e-08 -8.428460687e-10 0.0002873040835)
(1.153442983e-08 -7.189876139e-10 0.0002860589358)
(1.236573342e-08 -6.074726462e-10 0.000284738836)
(1.291960678e-08 -5.081762993e-10 0.0002833501988)
(1.323197862e-08 -4.209022e-10 0.0002818950195)
(1.333819536e-08 -3.450447355e-10 0.0002803755953)
(1.326772385e-08 -2.799294311e-10 0.0002787906727)
(1.304992378e-08 -2.247864008e-10 0.0002771424171)
(1.271253652e-08 -1.786776917e-10 0.0002754326928)
(1.227771215e-08 -1.4067546e-10 0.0002736617518)
(1.176466531e-08 -1.098975565e-10 0.0002718299178)
(1.119071973e-08 -8.552487828e-11 0.0002699360197)
(1.057177629e-08 -6.683332515e-11 0.0002679798158)
(9.920580047e-09 -5.317548001e-11 0.0002659594592)
(9.249110813e-09 -4.404382475e-11 0.0002638724804)
(8.566875759e-09 -3.893435479e-11 0.0002617130183)
(7.884122404e-09 -3.726821345e-11 0.0002594856563)
(7.208170104e-09 -3.85602337e-11 0.0002571863887)
(6.545207225e-09 -4.236385843e-11 0.0002548165383)
(5.899980729e-09 -4.833784521e-11 0.0002523670138)
(5.27609925e-09 -5.612903615e-11 0.0002498294373)
(4.677711628e-09 -6.523635085e-11 0.0002472149627)
(4.107019557e-09 -7.538909583e-11 0.0002445140611)
(3.565669148e-09 -8.631157113e-11 0.0002417108232)
(3.055033612e-09 -9.756665347e-11 0.0002388333319)
(2.57554826e-09 -1.090107433e-10 0.0002358310072)
(2.126886213e-09 -1.202361939e-10 0.0002327492464)
(1.710367202e-09 -1.310106238e-10 0.0002295379837)
(1.323423467e-09 -1.410817604e-10 0.0002262397244)
(9.671789917e-10 -1.501167167e-10 0.0002227942723)
(6.395536394e-10 -1.57928396e-10 0.0002192427526)
(3.394815194e-10 -1.643066166e-10 0.0002155759825)
(6.7804324e-11 -1.688064743e-10 0.0002117383307)
(-1.785287845e-10 -1.714442404e-10 0.0002077696806)
(-3.999549735e-10 -1.720468125e-10 0.0002036649302)
(-5.974134869e-10 -1.704283122e-10 0.0001993971709)
(-7.700000731e-10 -1.662037284e-10 0.0001949114497)
(-9.196011126e-10 -1.596006248e-10 0.0001902420716)
(-1.046564642e-09 -1.506059168e-10 0.0001853672629)
(-1.151039266e-09 -1.392690492e-10 0.0001802678597)
(-1.233172254e-09 -1.256771733e-10 0.000174916827)
(-1.292952568e-09 -1.099878264e-10 0.0001692999102)
(-1.330590191e-09 -9.235240531e-11 0.0001633903879)
(-1.346388256e-09 -7.298760544e-11 0.0001571753334)
(-1.341121769e-09 -5.21634949e-11 0.0001506519189)
(-1.316005923e-09 -3.017356174e-11 0.0001438215125)
(-1.272732847e-09 -7.380884328e-12 0.0001367096428)
(-1.211196262e-09 1.603753916e-11 0.0001292627434)
(-1.132837555e-09 3.952416536e-11 0.0001214897786)
(-1.043799457e-09 6.232207633e-11 0.0001135478705)
(-9.472367329e-10 8.396681102e-11 0.0001055079605)
(-8.447987289e-10 1.04102822e-10 9.738936222e-05)
(-7.369892674e-10 1.209226876e-10 8.905608428e-05)
(-6.308461247e-10 1.34294248e-10 8.074993227e-05)
(-5.266093224e-10 1.442310991e-10 7.246508402e-05)
(-4.274663949e-10 1.453888511e-10 6.372938901e-05)
(-3.353051974e-10 1.422317508e-10 5.502228881e-05)
(-2.531058761e-10 1.293906891e-10 4.578319242e-05)
(-1.810245035e-10 1.097689882e-10 3.616800567e-05)
(-1.18850939e-10 8.330284785e-11 2.614750328e-05)
(-6.651737323e-11 7.235441213e-11 1.571463559e-05)
(-2.176501355e-11 7.235302146e-11 5.141953747e-06)
(3.13710744e-07 -1.496703811e-09 5.896249829e-05)
(3.000941358e-07 -3.651474678e-09 0.0001326004138)
(2.897501285e-07 -5.768137603e-09 0.0002046239625)
(3.065023908e-07 -7.564803407e-09 0.0002667512409)
(2.326168752e-07 -8.924904138e-09 0.0003182252625)
(2.038430655e-07 -9.874346756e-09 0.0003598128564)
(1.707858667e-07 -1.045465164e-08 0.0003929440354)
(5.761355734e-08 -1.075871491e-08 0.0004189479525)
(2.963120245e-09 -1.096747934e-08 0.0004392726055)
(-7.807095131e-08 -1.140383019e-08 0.000455243163)
(-9.955675846e-08 -1.232207292e-08 0.0004679637165)
(-1.083965121e-07 -1.375375973e-08 0.0004785475114)
(-5.228646497e-08 -1.421793789e-08 0.0004855687288)
(-9.437237741e-08 -1.288456813e-08 0.000490841944)
(-1.175406804e-07 -1.096644564e-08 0.0004960405476)
(-1.216549212e-07 -9.128799054e-09 0.0005000745046)
(-1.137893806e-07 -7.603444055e-09 0.0005030727935)
(-1.004014615e-07 -6.442046424e-09 0.000505250604)
(-8.507251467e-08 -5.59666874e-09 0.0005067654991)
(-6.965668193e-08 -4.981605512e-09 0.0005077063689)
(-5.512275165e-08 -4.505114972e-09 0.0005081811061)
(-4.193882793e-08 -4.114172989e-09 0.0005082302143)
(-3.021582062e-08 -3.766509224e-09 0.0005079378969)
(-2.002234272e-08 -3.439617293e-09 0.0005073218633)
(-1.122998453e-08 -3.122164866e-09 0.0005064432349)
(-3.774341375e-09 -2.811252384e-09 0.0005053176285)
(2.481314646e-09 -2.509727613e-09 0.0005039774234)
(7.680379196e-09 -2.220987555e-09 0.0005024505458)
(1.189828591e-08 -1.947988725e-09 0.0005007394071)
(1.528877312e-08 -1.692940995e-09 0.0004988725386)
(1.794764916e-08 -1.457616132e-09 0.0004968630482)
(1.994761749e-08 -1.243415593e-09 0.0004947096924)
(2.138527209e-08 -1.050561854e-09 0.0004924267148)
(2.234313947e-08 -8.788389708e-10 0.0004900252087)
(2.288335463e-08 -7.27907336e-10 0.0004875086248)
(2.306704563e-08 -5.967196043e-10 0.0004848809359)
(2.294517235e-08 -4.841093406e-10 0.0004821399744)
(2.25685094e-08 -3.887451056e-10 0.0004792894848)
(2.198503261e-08 -3.090048058e-10 0.0004763326913)
(2.123304831e-08 -2.432838302e-10 0.0004732700297)
(2.034578623e-08 -1.900565917e-10 0.0004701020602)
(1.935320602e-08 -1.479065358e-10 0.0004668267569)
(1.828280659e-08 -1.155814051e-10 0.0004634437022)
(1.715662925e-08 -9.196155782e-11 0.000459949702)
(1.599539184e-08 -7.616929335e-11 0.0004563404854)
(1.481553604e-08 -6.733298728e-11 0.0004526059165)
(1.363478389e-08 -6.445156612e-11 0.0004487539214)
(1.246579348e-08 -6.668598309e-11 0.0004447775732)
(1.131926693e-08 -7.326396331e-11 0.0004406791592)
(1.020341366e-08 -8.359536286e-11 0.0004364429568)
(9.124474402e-09 -9.706943129e-11 0.0004320544777)
(8.08962417e-09 -1.128196012e-10 0.0004275330111)
(7.102670561e-09 -1.30377736e-10 0.0004228620779)
(6.166460358e-09 -1.492670407e-10 0.0004180141644)
(5.283368388e-09 -1.687315553e-10 0.0004130378373)
(4.454147478e-09 -1.885229389e-10 0.0004078456236)
(3.678232324e-09 -2.079362084e-10 0.0004025160333)
(2.957905265e-09 -2.265694837e-10 0.0003969624827)
(2.288725624e-09 -2.439864851e-10 0.0003912584803)
(1.672637214e-09 -2.596115186e-10 0.000385299923)
(1.106042653e-09 -2.731210196e-10 0.0003791579326)
(5.870985908e-10 -2.841515002e-10 0.0003728166285)
(1.172606483e-10 -2.919335443e-10 0.0003661798019)
(-3.08747286e-10 -2.964952911e-10 0.0003593164273)
(-6.916812488e-10 -2.975373779e-10 0.0003522176809)
(-1.033165566e-09 -2.947383471e-10 0.0003448370275)
(-1.331636428e-09 -2.874323612e-10 0.000337079431)
(-1.590356135e-09 -2.760129683e-10 0.000329004219)
(-1.809926583e-09 -2.604575403e-10 0.0003205737355)
(-1.990604766e-09 -2.408515864e-10 0.0003117548389)
(-2.132645376e-09 -2.173458262e-10 0.0003025007747)
(-2.236029318e-09 -1.902127042e-10 0.0002927868912)
(-2.301119741e-09 -1.59714046e-10 0.0002825669764)
(-2.32844088e-09 -1.262246038e-10 0.0002718186749)
(-2.319333029e-09 -9.0211433e-11 0.0002605370961)
(-2.275897741e-09 -5.21820911e-11 0.0002487246064)
(-2.201061378e-09 -1.276448507e-11 0.0002364253546)
(-2.094640143e-09 2.773528484e-11 0.0002235467033)
(-1.959126769e-09 6.835300437e-11 0.000210104155)
(-1.805144479e-09 1.077796613e-10 0.0001963694367)
(-1.638149116e-09 1.452120177e-10 0.0001824652341)
(-1.460993058e-09 1.800351907e-10 0.0001684249482)
(-1.274547613e-09 2.091234292e-10 0.0001540133957)
(-1.090983896e-09 2.322481761e-10 0.0001396487547)
(-9.107170004e-10 2.494329447e-10 0.0001253209564)
(-7.392594402e-10 2.514351584e-10 0.0001102134648)
(-5.798760686e-10 2.45975276e-10 9.515542487e-05)
(-4.377207436e-10 2.237679724e-10 7.917735196e-05)
(-3.13063377e-10 1.89834246e-10 6.254886922e-05)
(-2.055405516e-10 1.440637613e-10 4.521943448e-05)
(-1.150349985e-10 1.251295607e-10 2.717685612e-05)
(-3.764036641e-11 1.251271557e-10 8.892483466e-06)
(4.566155106e-07 -2.178497829e-09 8.582170606e-05)
(4.36796124e-07 -5.314832234e-09 0.0001930039274)
(4.217401074e-07 -8.395699372e-09 0.0002978363887)
(4.461235336e-07 -1.101080099e-08 0.0003882645284)
(3.385809229e-07 -1.299046889e-08 0.0004631865293)
(2.966997694e-07 -1.437241144e-08 0.0005237185345)
(2.485840132e-07 -1.52170628e-08 0.0005719419712)
(8.385828155e-08 -1.565963614e-08 0.000609791462)
(4.312911462e-09 -1.596349909e-08 0.0006393746113)
(-1.136346395e-07 -1.659862101e-08 0.0006626202427)
(-1.44907884e-07 -1.793515116e-08 0.0006811353943)
(-1.577744138e-07 -2.001901478e-08 0.0006965404291)
(-7.610453691e-08 -2.069464018e-08 0.0007067600242)
(-1.3736186e-07 -1.875388002e-08 0.0007144353489)
(-1.710840282e-07 -1.596199452e-08 0.0007220020743)
(-1.770724306e-07 -1.328724413e-08 0.0007278736212)
(-1.656238976e-07 -1.106704362e-08 0.0007322377217)
(-1.461373749e-07 -9.376594117e-09 0.0007354075909)
(-1.238256275e-07 -8.146121237e-09 0.0007376125668)
(-1.01387415e-07 -7.250878039e-09 0.0007389820312)
(-8.023283827e-08 -6.557331594e-09 0.0007396730257)
(-6.10432371e-08 -5.988303671e-09 0.0007397445042)
(-4.398004411e-08 -5.482268507e-09 0.0007393190274)
(-2.914312761e-08 -5.006467379e-09 0.0007384223717)
(-1.634558337e-08 -4.544405736e-09 0.0007371435015)
(-5.493668441e-09 -4.091863181e-09 0.0007355051471)
(3.611628787e-09 -3.652984723e-09 0.0007335544379)
(1.117902506e-08 -3.232714803e-09 0.0007313320212)
(1.731831632e-08 -2.83535672e-09 0.0007288414069)
(2.225327337e-08 -2.464127008e-09 0.0007261241231)
(2.612334815e-08 -2.121604526e-09 0.0007231992489)
(2.903436277e-08 -1.80982914e-09 0.0007200649742)
(3.112691267e-08 -1.529124668e-09 0.000716742031)
(3.252111772e-08 -1.279176799e-09 0.0007132465659)
(3.330741729e-08 -1.059491223e-09 0.0007095836017)
(3.357478511e-08 -8.685434974e-10 0.0007057589207)
(3.339739486e-08 -7.046358403e-10 0.000701769368)
(3.28491505e-08 -5.658303015e-10 0.0006976203939)
(3.199988232e-08 -4.497658747e-10 0.0006933166912)
(3.090534634e-08 -3.541069996e-10 0.0006888588943)
(2.961390945e-08 -2.766331384e-10 0.0006842478185)
(2.816917883e-08 -2.152824526e-10 0.0006794805152)
(2.661117997e-08 -1.682322435e-10 0.0006745563763)
(2.497199466e-08 -1.338528389e-10 0.000669470753)
(2.328177835e-08 -1.108667186e-10 0.0006642174287)
(2.156446243e-08 -9.800520687e-11 0.0006587816502)
(1.984584184e-08 -9.38112109e-11 0.0006531749545)
(1.81443408e-08 -9.706347263e-11 0.000647387259)
(1.647553662e-08 -1.066379225e-10 0.000641421893)
(1.48513783e-08 -1.216755882e-10 0.0006352559719)
(1.328094946e-08 -1.412875038e-10 0.0006288684073)
(1.177469354e-08 -1.642123542e-10 0.0006222872753)
(1.03381526e-08 -1.897687523e-10 0.0006154885902)
(8.975470233e-09 -2.172627087e-10 0.0006084323051)
(7.690103065e-09 -2.455939005e-10 0.0006011891099)
(6.483146859e-09 -2.744008602e-10 0.0005936316852)
(5.3537788e-09 -3.026574632e-10 0.0005858743047)
(4.3053209e-09 -3.29778761e-10 0.0005777909433)
(3.33130962e-09 -3.551297353e-10 0.0005694885947)
(2.434574238e-09 -3.778724458e-10 0.0005608157337)
(1.609878655e-09 -3.975359346e-10 0.0005518758801)
(8.545398202e-10 -4.135911339e-10 0.0005426459196)
(1.706764331e-10 -4.249181353e-10 0.000532985817)
(-4.493910467e-10 -4.315578963e-10 0.0005229959669)
(-1.006763054e-09 -4.330746853e-10 0.0005126635261)
(-1.503803843e-09 -4.290006109e-10 0.000501920761)
(-1.938237242e-09 -4.183665267e-10 0.0004906293439)
(-2.31481163e-09 -4.017452538e-10 0.0004788756276)
(-2.634403081e-09 -3.79103856e-10 0.000466604803)
(-2.897385662e-09 -3.50566795e-10 0.0004537686313)
(-3.104130081e-09 -3.163534476e-10 0.0004402990599)
(-3.254608547e-09 -2.768603649e-10 0.0004261602077)
(-3.349349634e-09 -2.32468642e-10 0.0004112848114)
(-3.389116381e-09 -1.837237424e-10 0.0003956403323)
(-3.375859627e-09 -1.313054791e-10 0.000379219652)
(-3.312638246e-09 -7.595261758e-11 0.0003620262146)
(-3.203711648e-09 -1.857909549e-11 0.0003441242803)
(-3.04881231e-09 4.036954898e-11 0.0003253790124)
(-2.851568481e-09 9.948987271e-11 0.0003058129753)
(-2.627442584e-09 1.568765687e-10 0.0002858216759)
(-2.384375764e-09 2.113604997e-10 0.0002655836869)
(-2.126519744e-09 2.62046685e-10 0.0002451476246)
(-1.85514274e-09 3.043854991e-10 0.0002241711725)
(-1.587960178e-09 3.380442702e-10 0.0002032630015)
(-1.325576239e-09 3.630572225e-10 0.0001824084562)
(-1.076014555e-09 3.659715054e-10 0.0001604190435)
(-8.440272199e-10 3.580244807e-10 0.0001385016093)
(-6.371158293e-10 3.257010762e-10 0.0001152450392)
(-4.556732482e-10 2.763095074e-10 9.104177781e-05)
(-2.99170512e-10 2.096891776e-10 6.581825952e-05)
(-1.674369322e-10 1.821298739e-10 3.955673903e-05)
(-5.478669588e-11 1.821263733e-10 1.294327961e-05)
(6.109611954e-07 -2.914876098e-09 0.000114831255)
(5.844424377e-07 -7.111357761e-09 0.0002582433304)
(5.642971695e-07 -1.123362305e-08 0.0003985113775)
(5.969227087e-07 -1.473268423e-08 0.0005195061379)
(4.530284246e-07 -1.738152169e-08 0.0006197533572)
(3.969905568e-07 -1.923059e-08 0.0007007464584)
(3.32610659e-07 -2.036075137e-08 0.0007652704351)
(1.122041515e-07 -2.095292383e-08 0.0008159138531)
(5.770766611e-09 -2.135949888e-08 0.0008554967315)
(-1.520455472e-07 -2.220930542e-08 0.0008865998771)
(-1.938898087e-07 -2.399761099e-08 0.000911373541)
(-2.111054973e-07 -2.678586451e-08 0.0009319858028)
(-1.018294775e-07 -2.768986557e-08 0.0009456598369)
(-1.837930693e-07 -2.509308749e-08 0.0009559295835)
(-2.289140425e-07 -2.135748573e-08 0.0009660540219)
(-2.369266514e-07 -1.777861322e-08 0.0009739102755)
(-2.216082724e-07 -1.480793807e-08 0.0009797495342)
(-1.955348935e-07 -1.254608093e-08 0.0009839908861)
(-1.656813044e-07 -1.089968223e-08 0.0009869411904)
(-1.356585022e-07 -9.701827931e-09 0.0009887735627)
(-1.073532319e-07 -8.773848143e-09 0.0009896981279)
(-8.167714028e-08 -8.012476766e-09 0.0009897937676)
(-5.884622774e-08 -7.335391031e-09 0.0009892244707)
(-3.899412015e-08 -6.698759073e-09 0.0009880247265)
(-2.187073572e-08 -6.080510838e-09 0.0009863135711)
(-7.350644383e-09 -5.474999343e-09 0.0009841214184)
(4.832435583e-09 -4.887770698e-09 0.0009815113282)
(1.495777159e-08 -4.325440672e-09 0.0009785376878)
(2.317227294e-08 -3.793767165e-09 0.0009752051933)
(2.977534968e-08 -3.297053971e-09 0.0009715694101)
(3.495359147e-08 -2.838751657e-09 0.0009676558667)
(3.88485905e-08 -2.421589607e-09 0.000963462141)
(4.164846646e-08 -2.046001096e-09 0.0009590159728)
(4.351394225e-08 -1.711565569e-09 0.0009543389667)
(4.456602768e-08 -1.41762163e-09 0.0009494378432)
(4.492377147e-08 -1.16212954e-09 0.0009443203392)
(4.468641956e-08 -9.42817634e-10 0.0009389822335)
(4.395285703e-08 -7.57092892e-10 0.0009334308185)
(4.281651828e-08 -6.01796238e-10 0.0009276723734)
(4.135200603e-08 -4.738026431e-10 0.0009217077471)
(3.962403619e-08 -3.701409807e-10 0.0009155380303)
(3.769095611e-08 -2.880524676e-10 0.0009091592777)
(3.560632074e-08 -2.250982944e-10 0.000902570676)
(3.341305618e-08 -1.79097925e-10 0.0008957660045)
(3.115151108e-08 -1.483420106e-10 0.0008887369457)
(2.88537061e-08 -1.311330364e-10 0.0008814637594)
(2.655415546e-08 -1.255213812e-10 0.0008739618821)
(2.427751114e-08 -1.298729761e-10 0.0008662178233)
(2.204461591e-08 -1.426837922e-10 0.0008582360377)
(1.987145778e-08 -1.628045064e-10 0.0008499859049)
(1.777019084e-08 -1.890456636e-10 0.0008414392087)
(1.57547886e-08 -2.197195976e-10 0.0008326335151)
(1.383266649e-08 -2.53914598e-10 0.0008235367309)
(1.200936871e-08 -2.907020922e-10 0.0008140952724)
(1.028952029e-08 -3.28609825e-10 0.0008044037242)
(8.674587401e-09 -3.671541454e-10 0.0007942917305)
(7.16346909e-09 -4.04962077e-10 0.0007839121916)
(5.760610279e-09 -4.412509462e-10 0.0007730964832)
(4.457362619e-09 -4.75171085e-10 0.0007619877655)
(3.257511741e-09 -5.05601312e-10 0.0007503832943)
(2.154051636e-09 -5.319114752e-10 0.0007384215815)
(1.143392325e-09 -5.533936709e-10 0.0007260716994)
(2.283686716e-10 -5.685494379e-10 0.0007131462781)
(-6.012947103e-10 -5.774335783e-10 0.0006997796478)
(-1.347070225e-09 -5.794630741e-10 0.0006859546238)
(-2.012121298e-09 -5.740118765e-10 0.0006715805772)
(-2.593402359e-09 -5.597832473e-10 0.0006564724226)
(-3.097266842e-09 -5.375436331e-10 0.0006407457021)
(-3.524886953e-09 -5.072489648e-10 0.0006243270797)
(-3.876763199e-09 -4.690657745e-10 0.0006071520108)
(-4.153391598e-09 -4.232875932e-10 0.0005891294399)
(-4.354734963e-09 -3.704450147e-10 0.0005702113571)
(-4.481500537e-09 -3.110479521e-10 0.0005503077626)
(-4.534709285e-09 -2.45826247e-10 0.0005293751193)
(-4.516971468e-09 -1.756895038e-10 0.0005074039023)
(-4.432379926e-09 -1.016262062e-10 0.0004843987199)
(-4.286633837e-09 -2.485922209e-11 0.0004604455539)
(-4.079375252e-09 5.401530901e-11 0.0004353639896)
(-3.815458844e-09 1.331195506e-10 0.0004091842187)
(-3.51557366e-09 2.099041616e-10 0.000382435438)
(-3.190345123e-09 2.828048119e-10 0.0003553565814)
(-2.845328323e-09 3.506239981e-10 0.0003280126984)
(-2.48222016e-09 4.072742255e-10 0.0002999457625)
(-2.12472425e-09 4.52310372e-10 0.0002719701883)
(-1.773648999e-09 4.857782303e-10 0.0002440663663)
(-1.439730197e-09 4.896776023e-10 0.0002146440677)
(-1.129326243e-09 4.790443156e-10 0.000185318078)
(-8.524744335e-10 4.357949177e-10 0.000154200296)
(-6.097004285e-10 3.697079557e-10 0.0001218158212)
(-4.002964626e-10 2.805685476e-10 8.80662211e-05)
(-2.24034151e-10 2.436936173e-10 5.292775214e-05)
(-7.330575601e-11 2.436889334e-10 1.731838145e-05)
(7.776637555e-07 -3.710208619e-09 0.0001461633008)
(7.439092766e-07 -9.051712653e-09 0.0003287057831)
(7.182673127e-07 -1.429875016e-08 0.0005072463795)
(7.597948264e-07 -1.875254048e-08 0.0006612549164)
(5.766385634e-07 -2.212412103e-08 0.0007888548845)
(5.053105985e-07 -2.447771308e-08 0.0008919471917)
(4.233644561e-07 -2.59162423e-08 0.0009740767253)
(1.428193845e-07 -2.666999076e-08 0.001038538349)
(7.345337262e-09 -2.7187501e-08 0.001088921532)
(-1.935316222e-07 -2.826917976e-08 0.001128511263)
(-2.467932136e-07 -3.054542977e-08 0.001160044494)
(-2.687062535e-07 -3.409446646e-08 0.001186280872)
(-1.296139501e-07 -3.524512687e-08 0.001203685906)
(-2.339415491e-07 -3.193981025e-08 0.001216757783)
(-2.913739127e-07 -2.718493856e-08 0.001229644705)
(-3.015727854e-07 -2.262956016e-08 0.00123964456)
(-2.820747417e-07 -1.884832755e-08 0.001247077078)
(-2.488871646e-07 -1.596931603e-08 0.001252475695)
(-2.108879358e-07 -1.387369261e-08 0.001256230998)
(-1.726733237e-07 -1.234900023e-08 0.001258563339)
(-1.366448771e-07 -1.116781843e-08 0.001259740175)
(-1.039629884e-07 -1.019870463e-08 0.00125986191)
(-7.490259415e-08 -9.33687406e-09 0.001259137279)
(-4.963378058e-08 -8.526535199e-09 0.001257610181)
(-2.783823032e-08 -7.739596114e-09 0.001255432131)
(-9.356289334e-09 -6.968869025e-09 0.001252641843)
(6.150979852e-09 -6.221413317e-09 0.001249319582)
(1.903904359e-08 -5.505649888e-09 0.001245534575)
(2.949489581e-08 -4.8289077e-09 0.0012412928)
(3.789964147e-08 -4.19666485e-09 0.001236664983)
(4.449078176e-08 -3.6133134e-09 0.001231683618)
(4.944854274e-08 -3.082327457e-09 0.001226345621)
(5.301237309e-08 -2.604258516e-09 0.001220686303)
(5.538684945e-08 -2.178571272e-09 0.001214733162)
(5.672599948e-08 -1.804423863e-09 0.001208494753)
(5.718135472e-08 -1.479220005e-09 0.001201980923)
(5.687924064e-08 -1.2000682e-09 0.001195186299)
(5.594552341e-08 -9.636679155e-10 0.001188120164)
(5.449913129e-08 -7.659981124e-10 0.00118079051)
(5.263502257e-08 -6.030810886e-10 0.001173198418)
(5.043557107e-08 -4.711350365e-10 0.001165345276)
(4.79750444e-08 -3.66648431e-10 0.001157226062)
(4.532161014e-08 -2.865170264e-10 0.001148839741)
(4.252990688e-08 -2.279653208e-10 0.001140178395)
(3.965129254e-08 -1.888175647e-10 0.001131231437)
(3.672652472e-08 -1.669130712e-10 0.00112197374)
(3.379953492e-08 -1.597702594e-10 0.001112424954)
(3.09017015e-08 -1.653091998e-10 0.001102567905)
(2.805955423e-08 -1.816154848e-10 0.001092408266)
(2.529344351e-08 -2.07226195e-10 0.00108190706)
(2.26188397e-08 -2.406273292e-10 0.001071028373)
(2.005352903e-08 -2.796707364e-10 0.00105982002)
(1.760695025e-08 -3.231959432e-10 0.001048241151)
(1.52861603e-08 -3.700210135e-10 0.001036223563)
(1.309704618e-08 -4.182719828e-10 0.001023887648)
(1.10414741e-08 -4.673332345e-10 0.001011016567)
(9.118042711e-09 -5.154571714e-10 0.0009978049399)
(7.332409745e-09 -5.616475653e-10 0.0009840381336)
(5.673567126e-09 -6.048229139e-10 0.0009698983696)
(4.146333406e-09 -6.435561178e-10 0.0009551275843)
(2.741790964e-09 -6.770450865e-10 0.000939902083)
(1.455370285e-09 -7.043887625e-10 0.0009241824993)
(2.906797357e-10 -7.236798252e-10 0.0009077303387)
(-7.653597414e-10 -7.349880294e-10 0.0008907165839)
(-1.7146223e-09 -7.37571279e-10 0.0008731193615)
(-2.561134515e-09 -7.306327062e-10 0.000854823314)
(-3.301019825e-09 -7.125217536e-10 0.000835592855)
(-3.942365215e-09 -6.842139953e-10 0.0008155750524)
(-4.486662731e-09 -6.456533375e-10 0.0007946765606)
(-4.934549447e-09 -5.970517514e-10 0.0007728152237)
(-5.286656718e-09 -5.387828587e-10 0.0007498751412)
(-5.542937213e-09 -4.71522027e-10 0.0007257952038)
(-5.704291147e-09 -3.959183011e-10 0.0007004608551)
(-5.772018058e-09 -3.129006619e-10 0.0006738166784)
(-5.749440425e-09 -2.236269019e-10 0.0006458505502)
(-5.641767832e-09 -1.293552156e-10 0.0006165683361)
(-5.456254494e-09 -3.1642134e-11 0.0005860794782)
(-5.192444794e-09 6.875354503e-11 0.0005541543353)
(-4.856518018e-09 1.694416117e-10 0.0005208313369)
(-4.474808279e-09 2.671771298e-10 0.0004867840726)
(-4.060840178e-09 3.59968937e-10 0.0004523166703)
(-3.621684529e-09 4.462927878e-10 0.0004175119284)
(-3.159501236e-09 5.184001964e-10 0.0003817868465)
(-2.704461515e-09 5.75724588e-10 0.0003461780545)
(-2.257594348e-09 6.183242499e-10 0.0003106605925)
(-1.832564818e-09 6.232875771e-10 0.0002732103332)
(-1.437466232e-09 6.097529668e-10 0.0002358826609)
(-1.085074591e-09 5.547028435e-10 0.0001962743006)
(-7.760589846e-10 4.705838593e-10 0.0001550536265)
(-5.095185304e-10 3.571225014e-10 0.0001120953487)
(-2.851625284e-10 3.101861379e-10 6.736924506e-05)
(-9.330744725e-11 3.10180176e-10 2.204375279e-05)
(9.57712479e-07 -4.569215254e-09 0.0001800037821)
(9.161429891e-07 -1.114741185e-08 0.0004048094413)
(8.845642655e-07 -1.760927054e-08 0.0006246866774)
(9.357064433e-07 -2.309422537e-08 0.0008143520651)
(7.101448977e-07 -2.724641164e-08 0.0009714946359)
(6.223027144e-07 -3.014491945e-08 0.001098455406)
(5.213839785e-07 -3.191650438e-08 0.001199599993)
(1.75885665e-07 -3.284476457e-08 0.001278986104)
(9.045967629e-09 -3.348209146e-08 0.001341034261)
(-2.383390615e-07 -3.481420606e-08 0.00138979001)
(-3.039320513e-07 -3.761746521e-08 0.001428623978)
(-3.309185112e-07 -4.198819318e-08 0.001460934737)
(-1.596228403e-07 -4.340526042e-08 0.001482369475)
(-2.881049031e-07 -3.933467985e-08 0.001498467821)
(-3.588343037e-07 -3.347893574e-08 0.001514338389)
(-3.713944721e-07 -2.786887264e-08 0.001526653462)
(-3.473821407e-07 -2.321218955e-08 0.001535806795)
(-3.065108046e-07 -1.966661445e-08 0.001542455328)
(-2.597137984e-07 -1.708580147e-08 0.001547080078)
(-2.126515422e-07 -1.520810446e-08 0.001549952414)