/*--------------------------------*- C++ -*----------------------------------*\
| =========                 |                                                 |
| \\      /  F ield         | foam-extend: Open Source CFD                    |
|  \\    /   O peration     | Version:     3.2                                |
|   \\  /    A nd           | Web:         http://www.foam-extend.org         |
|    \\/     M anipulation  | For copyright notice see file Copyright         |
\*---------------------------------------------------------------------------*/
FoamFile
{
    version     2.0;
    format      ascii;
    class       volVectorField;
    location    "0";
    object      U;
}
// * * * * * * * * * * * * * * * * * * * * * * * * * * * * * * * * * * * * * //

dimensions      [0 1 -1 0 0 0 0];

internalField   nonuniform List<vector> 
50432
(
(0.4668871605 -0.003821964575 0)
(1.067430026 -0.003814847454 0)
(1.697076053 -0.003801848141 0)
(2.301673696 -0.003784773213 0)
(2.876886716 -0.003764907853 0)
(3.422764012 -0.003743415401 0)
(3.940293713 -0.003721136633 0)
(4.430720334 -0.003698749477 0)
(4.895347493 -0.003676930099 0)
(5.335467978 -0.003656342486 0)
(5.752336053 -0.003638034165 0)
(6.147156156 -0.003623702716 0)
(6.52107869 -0.003608741673 0)
(6.87519913 -0.003573469014 0)
(7.210558761 -0.003534513469 0)
(7.528146239 -0.003499444107 0)
(7.828899554 -0.003467119548 0)
(8.113708186 -0.003436222473 0)
(8.383415318 -0.003406110302 0)
(8.638820054 -0.003376447117 0)
(8.880679581 -0.003347088193 0)
(9.109711276 -0.003317925684 0)
(9.326594732 -0.003288961415 0)
(9.531973695 -0.003260110786 0)
(9.726457921 -0.003231432833 0)
(9.910624943 -0.003202856217 0)
(10.08502175 -0.003174410835 0)
(10.2501664 -0.003146124523 0)
(10.40654952 -0.003117914732 0)
(10.55463575 -0.003089854483 0)
(10.69486514 -0.003061924481 0)
(10.82765441 -0.00303408354 0)
(10.95339821 -0.003006383266 0)
(11.07247026 -0.002978791095 0)
(11.18522447 -0.002951338187 0)
(11.291996 -0.002924008527 0)
(11.39310224 -0.00289678008 0)
(11.48884373 -0.002869650718 0)
(11.5795051 -0.002842638738 0)
(11.66535586 -0.002815733948 0)
(11.74665124 -0.002788942891 0)
(11.82363294 -0.002762258043 0)
(11.89652982 -0.002735683264 0)
(11.96555861 -0.002709205047 0)
(12.03092455 -0.002682828519 0)
(12.09282198 -0.002656503802 0)
(12.15143494 -0.002630284963 0)
(12.2069377 -0.002604157986 0)
(12.2594953 -0.002578137153 0)
(12.309264 -0.002552189894 0)
(12.35639178 -0.002526254902 0)
(12.40101878 -0.002500427512 0)
(12.44327769 -0.00247466049 0)
(12.48329417 -0.002448868643 0)
(12.5211872 -0.002423219176 0)
(12.55706946 -0.002397429272 0)
(12.59104765 -0.002371750715 0)
(12.62322281 -0.002345923746 0)
(12.6536906 -0.002320140778 0)
(12.68254163 -0.002294091982 0)
(12.70986168 -0.002267959878 0)
(12.735732 -0.002241670202 0)
(12.76022951 -0.002214890174 0)
(12.78342707 -0.002187769559 0)
(12.80539364 -0.00216022525 0)
(12.82619456 -0.002132019432 0)
(12.84589168 -0.002102722524 0)
(12.86454356 -0.00207239809 0)
(12.88220568 -0.002040752595 0)
(12.89893055 -0.002007467898 0)
(12.91476792 -0.001972125466 0)
(12.92976487 -0.00193431907 0)
(12.943966 -0.00189348237 0)
(12.95741354 -0.001849067932 0)
(12.97014748 -0.001800517487 0)
(12.9822057 -0.001747231212 0)
(12.99362403 -0.001688786881 0)
(13.00443645 -0.001623573652 0)
(13.0146751 -0.001549922688 0)
(13.02437043 -0.001468985573 0)
(13.03355128 -0.001381174888 0)
(13.04224493 -0.001286098946 0)
(13.05047725 -0.001178188589 0)
(13.05827272 -0.001065109871 0)
(13.06565452 -0.000947099317 0)
(13.0726446 -0.0008178781508 0)
(13.07926375 -0.0006898927091 0)
(13.08553164 -0.0005575677475 0)
(13.09146693 -0.0004277297387 0)
(13.09708726 -0.0002999892748 0)
(13.10240933 -0.0001765190451 0)
(13.10744899 -5.775843544e-05 0)
(0.4668871605 -0.01177187921 0)
(1.067430026 -0.01174995805 0)
(1.697076053 -0.01170991939 0)
(2.301673696 -0.01165732759 0)
(2.876886716 -0.0115961411 0)
(3.422764012 -0.01152994306 0)
(3.940293713 -0.01146132313 0)
(4.430720334 -0.01139236935 0)
(4.895347493 -0.01132516436 0)
(5.335467978 -0.01126175328 0)
(5.752336053 -0.01120536256 0)
(6.147156156 -0.01116122084 0)
(6.52107869 -0.01111513994 0)
(6.87519913 -0.01100649804 0)
(7.210558761 -0.01088651263 0)
(7.528146239 -0.0107784969 0)
(7.828899554 -0.01067893533 0)
(8.113708186 -0.01058377049 0)
(8.383415318 -0.01049102321 0)
(8.638820054 -0.01039965883 0)
(8.880679581 -0.01030923158 0)
(9.109711276 -0.01021940932 0)
(9.326594732 -0.01013019764 0)
(9.531973695 -0.01004133598 0)
(9.726457921 -0.009953006169 0)
(9.910624943 -0.009864988483 0)
(10.08502175 -0.009777375007 0)
(10.2501664 -0.009690251476 0)
(10.40654952 -0.009603363636 0)
(10.55463575 -0.009516936394 0)
(10.69486514 -0.009430910317 0)
(10.82765441 -0.009345158557 0)
(10.95339821 -0.009259840057 0)
(11.07247026 -0.009174854522 0)
(11.18522447 -0.009090297927 0)
(11.291996 -0.009006120939 0)
(11.39310224 -0.008922255698 0)
(11.48884373 -0.008838695642 0)
(11.5795051 -0.00875549713 0)
(11.66535586 -0.00867262877 0)
(11.74665124 -0.008590110714 0)
(11.82363294 -0.008507919787 0)
(11.89652982 -0.00842606788 0)
(11.96555861 -0.008344513389 0)
(12.03092455 -0.008263272107 0)
(12.09282198 -0.008182190407 0)
(12.15143494 -0.008101434817 0)
(12.2069377 -0.008020962166 0)
(12.2594953 -0.007940816445 0)
(12.309264 -0.00786089734 0)
(12.35639178 -0.007781016013 0)
(12.40101878 -0.007701466111 0)
(12.44327769 -0.007622102144 0)
(12.48329417 -0.007542661714 0)
(12.5211872 -0.007463659823 0)
(12.55706946 -0.007384225376 0)
(12.59104765 -0.007305133887 0)
(12.62322281 -0.00722558528 0)
(12.6536906 -0.007146172199 0)
(12.68254163 -0.007065940352 0)
(12.70986168 -0.00698545191 0)
(12.735732 -0.006904478138 0)
(12.76022951 -0.006821994053 0)
(12.78342707 -0.006738460938 0)
(12.80539364 -0.006653622818 0)
(12.82619456 -0.006566747215 0)
(12.84589168 -0.00647651099 0)
(12.86454356 -0.006383109919 0)
(12.88220568 -0.006285639906 0)
(12.89893055 -0.006183121048 0)
(12.91476792 -0.006074264247 0)
(12.92976487 -0.00595781829 0)
(12.943966 -0.005832038816 0)
(12.95741354 -0.005695239693 0)
(12.97014748 -0.005545701421 0)
(12.9822057 -0.00538157651 0)
(12.99362403 -0.00520156448 0)
(13.00443645 -0.005000703839 0)
(13.0146751 -0.004773854471 0)
(13.02437043 -0.004524563321 0)
(13.03355128 -0.004254101164 0)
(13.04224493 -0.003961261585 0)
(13.05047725 -0.003628891238 0)
(13.05827272 -0.003280602032 0)
(13.06565452 -0.002917122475 0)
(13.0726446 -0.002519113564 0)
(13.07926375 -0.002124910758 0)
(13.08553164 -0.001717341971 0)
(13.09146693 -0.001317433147 0)
(13.09708726 -0.0009239848875 0)
(13.10240933 -0.0005436892039 0)
(13.10744899 -0.0001778994316 0)
(0.4668871605 -0.02035826193 0)
(1.067430026 -0.02032035153 0)
(1.697076053 -0.02025110876 0)
(2.301673696 -0.02016015662 0)
(2.876886716 -0.02005434083 0)
(3.422764012 -0.01993985809 0)
(3.940293713 -0.01982118693 0)
(4.430720334 -0.01970193842 0)
(4.895347493 -0.01958571426 0)
(5.335467978 -0.01947605128 0)
(5.752336053 -0.01937852929 0)
(6.147156156 -0.0193021907 0)
(6.52107869 -0.01922249848 0)
(6.87519913 -0.01903461342 0)
(7.210558761 -0.01882711093 0)
(7.528146239 -0.01864030877 0)
(7.828899554 -0.0184681272 0)
(8.113708186 -0.01830354934 0)
(8.383415318 -0.01814315239 0)
(8.638820054 -0.01798514703 0)
(8.880679581 -0.01782876236 0)
(9.109711276 -0.01767342392 0)
(9.326594732 -0.01751914145 0)
(9.531973695 -0.01736546428 0)
(9.726457921 -0.01721270691 0)
(9.910624943 -0.01706048932 0)
(10.08502175 -0.01690897077 0)
(10.2501664 -0.01675829952 0)
(10.40654952 -0.01660803589 0)
(10.55463575 -0.0164585688 0)
(10.69486514 -0.0163097955 0)
(10.82765441 -0.01616149659 0)
(10.95339821 -0.01601394697 0)
(11.07247026 -0.01586697317 0)
(11.18522447 -0.01572074118 0)
(11.291996 -0.01557516568 0)
(11.39310224 -0.01543012932 0)
(11.48884373 -0.01528562074 0)
(11.5795051 -0.01514173742 0)
(11.66535586 -0.01499842506 0)
(11.74665124 -0.01485571852 0)
(11.82363294 -0.01471357771 0)
(11.89652982 -0.0145720232 0)
(11.96555861 -0.01443098305 0)
(12.03092455 -0.01429048455 0)
(12.09282198 -0.01415026204 0)
(12.15143494 -0.0140106035 0)
(12.2069377 -0.01387143427 0)
(12.2594953 -0.01373283044 0)
(12.309264 -0.01359461852 0)
(12.35639178 -0.01345647193 0)
(12.40101878 -0.0133188985 0)
(12.44327769 -0.01318164663 0)
(12.48329417 -0.01304426253 0)
(12.5211872 -0.01290763683 0)
(12.55706946 -0.01277026307 0)
(12.59104765 -0.01263348243 0)
(12.62322281 -0.01249591124 0)
(12.6536906 -0.01235857443 0)
(12.68254163 -0.01221982166 0)
(12.70986168 -0.01208062512 0)
(12.735732 -0.01194058926 0)
(12.76022951 -0.01179794146 0)
(12.78342707 -0.01165347948 0)
(12.80539364 -0.01150676062 0)
(12.82619456 -0.01135651815 0)
(12.84589168 -0.01120046382 0)
(12.86454356 -0.01103893621 0)
(12.88220568 -0.01087037179 0)
(12.89893055 -0.0106930759 0)
(12.91476792 -0.01050481919 0)
(12.92976487 -0.01030343781 0)
(12.943966 -0.01008591506 0)
(12.95741354 -0.00984933496 0)
(12.97014748 -0.009590723803 0)
(12.9822057 -0.009306886543 0)
(12.99362403 -0.008995574135 0)
(13.00443645 -0.008648206186 0)
(13.0146751 -0.008255893389 0)
(13.02437043 -0.007824769825 0)
(13.03355128 -0.007357033168 0)
(13.04224493 -0.006850597046 0)
(13.05047725 -0.006275796501 0)
(13.05827272 -0.005673465916 0)
(13.06565452 -0.005044865173 0)
(13.0726446 -0.004356549439 0)
(13.07926375 -0.003674815976 0)
(13.08553164 -0.002969967416 0)
(13.09146693 -0.002278365979 0)
(13.09708726 -0.001597937426 0)
(13.10240933 -0.0009402549097 0)
(13.10744899 -0.0003076588845 0)
(0.4668871605 -0.02963206822 0)
(1.067430026 -0.02957688848 0)
(1.697076053 -0.02947610352 0)
(2.301673696 -0.02934371992 0)
(2.876886716 -0.02918970183 0)
(3.422764012 -0.02902306873 0)
(3.940293713 -0.02885033925 0)
(4.430720334 -0.02867676941 0)
(4.895347493 -0.02850760163 0)
(5.335467978 -0.02834798383 0)
(5.752336053 -0.02820603762 0)
(6.147156156 -0.02809492448 0)
(6.52107869 -0.02797893004 0)
(6.87519913 -0.02770545763 0)
(7.210558761 -0.02740343145 0)
(7.528146239 -0.02713153523 0)
(7.828899554 -0.02688091974 0)
(8.113708186 -0.02664137167 0)
(8.383415318 -0.02640790904 0)
(8.638820054 -0.02617792744 0)
(8.880679581 -0.0259503048 0)
(9.109711276 -0.025724205 0)
(9.326594732 -0.02549964217 0)
(9.531973695 -0.02527596039 0)
(9.726457921 -0.0250536174 0)
(9.910624943 -0.02483206007 0)
(10.08502175 -0.02461152022 0)
(10.2501664 -0.02439221365 0)
(10.40654952 -0.02417350037 0)
(10.55463575 -0.02395594649 0)
(10.69486514 -0.02373940243 0)
(10.82765441 -0.02352354887 0)
(10.95339821 -0.02330878591 0)
(11.07247026 -0.02309486109 0)
(11.18522447 -0.02288201599 0)
(11.291996 -0.02267012643 0)
(11.39310224 -0.0224590216 0)
(11.48884373 -0.02224868499 0)
(11.5795051 -0.02203925844 0)
(11.66535586 -0.02183066295 0)
(11.74665124 -0.02162294924 0)
(11.82363294 -0.02141605899 0)
(11.89652982 -0.0212100221 0)
(11.96555861 -0.02100473387 0)
(12.03092455 -0.02080023405 0)
(12.09282198 -0.02059613593 0)
(12.15143494 -0.02039285868 0)
(12.2069377 -0.02019029365 0)
(12.2594953 -0.01998855157 0)
(12.309264 -0.01978737991 0)
(12.35639178 -0.01958630336 0)
(12.40101878 -0.01938606106 0)
(12.44327769 -0.0191862868 0)
(12.48329417 -0.01898632007 0)
(12.5211872 -0.01878745722 0)
(12.55706946 -0.01858750555 0)
(12.59104765 -0.01838841716 0)
(12.62322281 -0.01818817813 0)
(12.6536906 -0.01798828023 0)
(12.68254163 -0.01778632135 0)
(12.70986168 -0.01758371657 0)
(12.735732 -0.01737989012 0)
(12.76022951 -0.01717226193 0)
(12.78342707 -0.01696199312 0)
(12.80539364 -0.01674843937 0)
(12.82619456 -0.01652975689 0)
(12.84589168 -0.01630261507 0)
(12.86454356 -0.01606750674 0)
(12.88220568 -0.0158221561 0)
(12.89893055 -0.01556409656 0)
(12.91476792 -0.0152900832 0)
(12.92976487 -0.01499696649 0)
(12.943966 -0.01468035553 0)
(12.95741354 -0.01433600601 0)
(12.97014748 -0.01395958962 0)
(12.9822057 -0.01354645587 0)
(12.99362403 -0.01309333121 0)
(13.00443645 -0.01258772662 0)
(13.0146751 -0.01201670344 0)
(13.02437043 -0.01138919 0)
(13.03355128 -0.0107083851 0)
(13.04224493 -0.00997125195 0)
(13.05047725 -0.009134612308 0)
(13.05827272 -0.008257901859 0)
(13.06565452 -0.007342954395 0)
(13.0726446 -0.006341089952 0)
(13.07926375 -0.005348806202 0)
(13.08553164 -0.004322877726 0)
(13.09146693 -0.003316230842 0)
(13.09708726 -0.002325846429 0)
(13.10240933 -0.001368569562 0)
(13.10744899 -0.0004478068453 0)
(0.4668871605 -0.03964833301 0)
(1.067430026 -0.03957450136 0)
(1.697076053 -0.03943964896 0)
(2.301673696 -0.03926251691 0)
(2.876886716 -0.03905643744 0)
(3.422764012 -0.03883347883 0)
(3.940293713 -0.03860236314 0)
(4.430720334 -0.03837012304 0)
(4.895347493 -0.03814377297 0)
(5.335467978 -0.03793020099 0)
(5.752336053 -0.03774027395 0)
(6.147156156 -0.03759160223 0)
(6.52107869 -0.03743639922 0)
(6.87519913 -0.03707048736 0)
(7.210558761 -0.03666636996 0)
(7.528146239 -0.03630256707 0)
(7.828899554 -0.03596723825 0)
(8.113708186 -0.03564671787 0)
(8.383415318 -0.03533433995 0)
(8.638820054 -0.03502661971 0)
(8.880679581 -0.03472205581 0)
(9.109711276 -0.0344195295 0)
(9.326594732 -0.03411905969 0)
(9.531973695 -0.03381976875 0)
(9.726457921 -0.03352226913 0)
(9.910624943 -0.03322582075 0)
(10.08502175 -0.03293073377 0)
(10.2501664 -0.03263729696 0)
(10.40654952 -0.03234465396 0)
(10.55463575 -0.03205356228 0)
(10.69486514 -0.03176382175 0)
(10.82765441 -0.03147500513 0)
(10.95339821 -0.03118764776 0)
(11.07247026 -0.03090141183 0)
(11.18522447 -0.03061662059 0)
(11.291996 -0.03033310789 0)
(11.39310224 -0.03005064517 0)
(11.48884373 -0.02976921033 0)
(11.5795051 -0.02948899319 0)
(11.66535586 -0.02920988802 0)
(11.74665124 -0.0289319627 0)
(11.82363294 -0.02865513916 0)
(11.89652982 -0.02837945746 0)
(11.96555861 -0.02810477748 0)
(12.03092455 -0.02783115239 0)
(12.09282198 -0.02755806479 0)
(12.15143494 -0.02728607555 0)
(12.2069377 -0.02701503926 0)
(12.2594953 -0.02674510409 0)
(12.309264 -0.02647593217 0)
(12.35639178 -0.02620688749 0)
(12.40101878 -0.02593895908 0)
(12.44327769 -0.02567165689 0)
(12.48329417 -0.02540409718 0)
(12.5211872 -0.02513801449 0)
(12.55706946 -0.02487047493 0)
(12.59104765 -0.02460409047 0)
(12.62322281 -0.02433616641 0)
(12.6536906 -0.02406869881 0)
(12.68254163 -0.02379847356 0)
(12.70986168 -0.02352738408 0)
(12.735732 -0.02325465999 0)
(12.76022951 -0.02297684908 0)
(12.78342707 -0.02269550498 0)
(12.80539364 -0.02240976556 0)
(12.82619456 -0.02211716377 0)
(12.84589168 -0.02181324323 0)
(12.86454356 -0.02149866332 0)
(12.88220568 -0.02117037898 0)
(12.89893055 -0.02082508986 0)
(12.91476792 -0.0204584542 0)
(12.92976487 -0.02006625785 0)
(12.943966 -0.0196426257 0)
(12.95741354 -0.01918187877 0)
(12.97014748 -0.01867822569 0)
(12.9822057 -0.01812544402 0)
(12.99362403 -0.01751915365 0)
(13.00443645 -0.01684264403 0)
(13.0146751 -0.01607860295 0)
(13.02437043 -0.01523897672 0)
(13.03355128 -0.01432804539 0)
(13.04224493 -0.01334174567 0)
(13.05047725 -0.01222230416 0)
(13.05827272 -0.01104924707 0)
(13.06565452 -0.009825028041 0)
(13.0726446 -0.008484512259 0)
(13.07926375 -0.007156815648 0)
(13.08553164 -0.005784101683 0)
(13.09146693 -0.004437186894 0)
(13.09708726 -0.003112031636 0)
(13.10240933 -0.001831174974 0)
(13.10744899 -0.0005991750153 0)
(0.4668871605 -0.05046649735 0)
(1.067430026 -0.05037252051 0)
(1.697076053 -0.05020087324 0)
(2.301673696 -0.04997541018 0)
(2.876886716 -0.04971310133 0)
(3.422764012 -0.04942930781 0)
(3.940293713 -0.04913513152 0)
(4.430720334 -0.04883952402 0)
(4.895347493 -0.04855141368 0)
(5.335467978 -0.04827956794 0)
(5.752336053 -0.04803781876 0)
(6.147156156 -0.04784858152 0)
(6.52107869 -0.04765103091 0)
(6.87519913 -0.04718527893 0)
(7.210558761 -0.0466708969 0)
(7.528146239 -0.04620782933 0)
(7.828899554 -0.04578100504 0)
(8.113708186 -0.04537302974 0)
(8.383415318 -0.04497541858 0)
(8.638820054 -0.04458373597 0)
(8.880679581 -0.04419607092 0)
(9.109711276 -0.04381099941 0)
(9.326594732 -0.04342854553 0)
(9.531973695 -0.04304759218 0)
(9.726457921 -0.04266891891 0)
(9.910624943 -0.04229158372 0)
(10.08502175 -0.04191598139 0)
(10.2501664 -0.04154247947 0)
(10.40654952 -0.04116998797 0)
(10.55463575 -0.04079947107 0)
(10.69486514 -0.04043067398 0)
(10.82765441 -0.0400630529 0)
(10.95339821 -0.03969728922 0)
(11.07247026 -0.03933295298 0)
(11.18522447 -0.03897045561 0)
(11.291996 -0.03860958564 0)
(11.39310224 -0.03825005213 0)
(11.48884373 -0.03789182697 0)
(11.5795051 -0.03753515176 0)
(11.66535586 -0.03717989193 0)
(11.74665124 -0.03682613386 0)
(11.82363294 -0.03647377821 0)
(11.89652982 -0.03612287594 0)
(11.96555861 -0.03577324871 0)
(12.03092455 -0.03542496422 0)
(12.09282198 -0.03507736387 0)
(12.15143494 -0.03473116156 0)
(12.2069377 -0.03438617222 0)
(12.2594953 -0.03404258444 0)
(12.309264 -0.03369996818 0)
(12.35639178 -0.03335751387 0)
(12.40101878 -0.03301648039 0)
(12.44327769 -0.03267624402 0)
(12.48329417 -0.03233567985 0)
(12.5211872 -0.03199699572 0)
(12.55706946 -0.0316564572 0)
(12.59104765 -0.03131738896 0)
(12.62322281 -0.03097636103 0)
(12.6536906 -0.0306359141 0)
(12.68254163 -0.0302919571 0)
(12.70986168 -0.02994690007 0)
(12.735732 -0.0295997624 0)
(12.76022951 -0.02924614997 0)
(12.78342707 -0.0288880403 0)
(12.80539364 -0.02852433603 0)
(12.82619456 -0.02815189699 0)
(12.84589168 -0.02776505083 0)
(12.86454356 -0.02736463687 0)
(12.88220568 -0.02694677918 0)
(12.89893055 -0.02650727691 0)
(12.91476792 -0.02604060363 0)
(12.92976487 -0.02554139535 0)
(12.943966 -0.02500217392 0)
(12.95741354 -0.02441571084 0)
(12.97014748 -0.02377463454 0)
(12.9822057 -0.02307102475 0)
(12.99362403 -0.02229930628 0)
(13.00443645 -0.02143820902 0)
(13.0146751 -0.02046569708 0)
(13.02437043 -0.01939697637 0)
(13.03355128 -0.01823749474 0)
(13.04224493 -0.01698208024 0)
(13.05047725 -0.01555719582 0)
(13.05827272 -0.01406406665 0)
(13.06565452 -0.01250581585 0)
(13.0726446 -0.0107995364 0)
(13.07926375 -0.009109573858 0)
(13.08553164 -0.007362310849 0)
(13.09146693 -0.005647886396 0)
(13.09708726 -0.003961158626 0)
(13.10240933 -0.002330816455 0)
(13.10744899 -0.0007626616814 0)
(0.4668871605 -0.0621507611 0)
(1.067430026 -0.06203502626 0)
(1.697076053 -0.06182363832 0)
(2.301673696 -0.0615459749 0)
(2.876886716 -0.06122293494 0)
(3.422764012 -0.06087343609 0)
(3.940293713 -0.06051115058 0)
(4.430720334 -0.06014710251 0)
(4.895347493 -0.05979228737 0)
(5.335467978 -0.05945750252 0)
(5.752336053 -0.05915978232 0)
(6.147156156 -0.05892673189 0)
(6.52107869 -0.05868344334 0)
(6.87519913 -0.05810985806 0)
(7.210558761 -0.05747638366 0)
(7.528146239 -0.05690610429 0)
(7.828899554 -0.05638045945 0)
(8.113708186 -0.0558780276 0)
(8.383415318 -0.05538835945 0)
(8.638820054 -0.05490599246 0)
(8.880679581 -0.0544285732 0)
(9.109711276 -0.05395434795 0)
(9.326594732 -0.05348334638 0)
(9.531973695 -0.05301419274 0)
(9.726457921 -0.05254784708 0)
(9.910624943 -0.0520831493 0)
(10.08502175 -0.05162058558 0)
(10.2501664 -0.05116060858 0)
(10.40654952 -0.05070187592 0)
(10.55463575 -0.05024557504 0)
(10.69486514 -0.04979139215 0)
(10.82765441 -0.04933865754 0)
(10.95339821 -0.04888821036 0)
(11.07247026 -0.04843952111 0)
(11.18522447 -0.04799309649 0)
(11.291996 -0.04754867604 0)
(11.39310224 -0.04710590148 0)
(11.48884373 -0.04666473818 0)
(11.5795051 -0.04622548369 0)
(11.66535586 -0.04578797226 0)
(11.74665124 -0.0453523103 0)
(11.82363294 -0.04491837545 0)
(11.89652982 -0.04448623049 0)
(11.96555861 -0.04405565576 0)
(12.03092455 -0.04362673465 0)
(12.09282198 -0.04319865606 0)
(12.15143494 -0.04277229921 0)
(12.2069377 -0.04234743616 0)
(12.2594953 -0.04192429917 0)
(12.309264 -0.04150235862 0)
(12.35639178 -0.04108061752 0)
(12.40101878 -0.04066062621 0)
(12.44327769 -0.04024161656 0)
(12.48329417 -0.03982220322 0)
(12.5211872 -0.03940510519 0)
(12.55706946 -0.03898572344 0)
(12.59104765 -0.03856815237 0)
(12.62322281 -0.03814816789 0)
(12.6536906 -0.03772889894 0)
(12.68254163 -0.03730530724 0)
(12.70986168 -0.03688036082 0)
(12.735732 -0.03645285205 0)
(12.76022951 -0.03601736945 0)
(12.78342707 -0.03557634839 0)
(12.80539364 -0.03512843743 0)
(12.82619456 -0.03466976938 0)
(12.84589168 -0.0341933586 0)
(12.86454356 -0.03370023873 0)
(12.88220568 -0.03318563648 0)
(12.89893055 -0.03264437838 0)
(12.91476792 -0.03206965849 0)
(12.92976487 -0.03145487093 0)
(12.943966 -0.03079080618 0)
(12.95741354 -0.03006856214 0)
(12.97014748 -0.02927906055 0)
(12.9822057 -0.0284125474 0)
(12.99362403 -0.02746215668 0)
(13.00443645 -0.02640169374 0)
(13.0146751 -0.02520402082 0)
(13.02437043 -0.02388786438 0)
(13.03355128 -0.02245993358 0)
(13.04224493 -0.02091385904 0)
(13.05047725 -0.01915907803 0)
(13.05827272 -0.01732025189 0)
(13.06565452 -0.01540122684 0)
(13.0726446 -0.01329990076 0)
(13.07926375 -0.01121866938 0)
(13.08553164 -0.009066871028 0)
(13.09146693 -0.006955514183 0)
(13.09708726 -0.004878266501 0)
(13.10240933 -0.002870459102 0)
(13.10744899 -0.0009392370474 0)
(0.4668865151 -0.07477046395 0)
(1.06742855 -0.07463122917 0)
(1.697073707 -0.07437691894 0)
(2.301670514 -0.074042876 0)
(2.876882739 -0.07365424283 0)
(3.422759281 -0.07323377829 0)
(3.940288266 -0.07279793076 0)
(4.430714209 -0.07235996279 0)
(4.895340726 -0.07193310249 0)
(5.335460602 -0.07153033961 0)
(5.752328101 -0.07117216737 0)
(6.147147658 -0.0708917961 0)
(6.521069676 -0.07059910784 0)
(6.875189626 -0.06990905615 0)
(7.210548793 -0.06914695486 0)
(7.528135832 -0.06846088036 0)
(7.828888731 -0.06782850341 0)
(8.113696969 -0.06722405285 0)
(8.383403729 -0.06663495765 0)
(8.638808111 -0.06605464611 0)
(8.880667304 -0.06548028695 0)
(9.109698683 -0.06490977032 0)
(9.326581839 -0.06434313195 0)
(9.531960518 -0.06377871674 0)
(9.726444475 -0.06321767967 0)
(9.910611243 -0.06265862507 0)
(10.08500781 -0.06210213786 0)
(10.25015223 -0.06154876259 0)
(10.40653513 -0.06099688434 0)
(10.55462116 -0.06044793162 0)
(10.69485036 -0.05990152696 0)
(10.82763944 -0.05935686466 0)
(10.95338307 -0.05881495425 0)
(11.07245495 -0.05827515871 0)
(11.18520901 -0.05773808764 0)
(11.29198039 -0.05720342768 0)
(11.39308649 -0.05667074781 0)
(11.48882785 -0.05614000637 0)
(11.57948909 -0.05561156132 0)
(11.66533974 -0.05508521327 0)
(11.74663501 -0.05456109021 0)
(11.8236166 -0.05403904495 0)
(11.89651337 -0.05351915301 0)
(11.96554207 -0.05300115015 0)
(12.03090792 -0.05248513667 0)
(12.09280526 -0.05197013679 0)
(12.15141814 -0.05145720824 0)
(12.20692083 -0.05094607682 0)
(12.25947835 -0.05043702192 0)
(12.30924698 -0.0499294064 0)
(12.3563747 -0.04942203084 0)
(12.40100164 -0.04891676036 0)
(12.44326049 -0.04841267086 0)
(12.48327691 -0.0479080957 0)
(12.52116989 -0.04740630598 0)
(12.5570521 -0.04690176882 0)
(12.59103025 -0.04639941001 0)
(12.62320536 -0.04589414775 0)
(12.65367311 -0.0453897463 0)
(12.68252409 -0.04488014436 0)
(12.70984411 -0.04436891264 0)
(12.73571439 -0.04385459828 0)
(12.76021187 -0.04333069099 0)
(12.7834094 -0.04280012067 0)
(12.80537594 -0.04226126145 0)
(12.82617683 -0.04170946093 0)
(12.84587392 -0.04113631501 0)
(12.86452578 -0.04054306722 0)
(12.88218787 -0.03992397506 0)
(12.89891272 -0.03927281458 0)
(12.91475006 -0.03858139791 0)
(12.92974699 -0.03784177783 0)
(12.9439481 -0.03704287482 0)
(12.95739563 -0.03617397924 0)
(12.97012955 -0.03522416946 0)
(12.98218775 -0.03418171094 0)
(12.99360607 -0.03303834354 0)
(13.00441847 -0.03176255375 0)
(13.01465711 -0.03032169352 0)
(13.02435243 -0.02873829171 0)
(13.03353326 -0.02702041977 0)
(13.0422269 -0.02516041503 0)
(13.05045921 -0.02304932599 0)
(13.05825467 -0.02083712648 0)
(13.06563646 -0.01852844367 0)
(13.07262653 -0.01600044365 0)
(13.07924567 -0.01349661854 0)
(13.08551355 -0.01090789785 0)
(13.09144883 -0.00836783031 0)
(13.09706915 -0.005868797793 0)
(13.10239122 -0.003453305398 0)
(13.10743088 -0.001129948991 0)
(0.4668831765 -0.08840049693 0)
(1.067420917 -0.0882358808 0)
(1.697061571 -0.08793521194 0)
(2.301654055 -0.08754027575 0)
(2.876862167 -0.08708079799 0)
(3.422734805 -0.08658368626 0)
(3.94026009 -0.08606838736 0)
(4.430682526 -0.08555058148 0)
(4.89530572 -0.08504590809 0)
(5.335422449 -0.0845697249 0)
(5.752286967 -0.08414626085 0)
(6.147103701 -0.08381478022 0)
(6.521023045 -0.08346873733 0)
(6.875140463 -0.08265289497 0)
(7.210497232 -0.08175186895 0)
(7.528082 -0.08094072878 0)
(7.828832749 -0.08019307478 0)
(8.11363895 -0.07947843791 0)
(8.383343781 -0.07878195557 0)
(8.638746337 -0.07809585807 0)
(8.8806038 -0.07741679801 0)
(9.109633541 -0.07674228096 0)
(9.326515147 -0.07607234913 0)
(9.531892357 -0.07540504572 0)
(9.726374924 -0.07474173626 0)
(9.910540374 -0.07408077067 0)
(10.08493569 -0.07342284047 0)
(10.25007893 -0.0727685895 0)
(10.40646071 -0.07211610844 0)
(10.55454569 -0.07146708622 0)
(10.69477388 -0.07082107654 0)
(10.82756202 -0.07017712683 0)
(10.95330474 -0.06953643067 0)
(11.07237577 -0.0688982349 0)
(11.18512902 -0.06826326023 0)
(11.29189965 -0.06763113622 0)
(11.39300502 -0.06700135325 0)
(11.4887457 -0.06637386206 0)
(11.57940629 -0.06574908588 0)
(11.66525632 -0.06512678896 0)
(11.74655101 -0.06450712263 0)
(11.82353205 -0.06388991287 0)
(11.8964283 -0.06327524896 0)
(11.96545651 -0.06266281849 0)
(12.03082189 -0.06205274005 0)
(12.09271879 -0.06144385998 0)
(12.15133125 -0.06083742883 0)
(12.20683354 -0.0602331224 0)
(12.25939069 -0.05963127103 0)
(12.30915896 -0.05903112143 0)
(12.35628634 -0.05843125553 0)
(12.40091296 -0.05783387845 0)
(12.44317151 -0.05723789763 0)
(12.48318765 -0.05664134262 0)
(12.52108035 -0.05604808081 0)
(12.55696231 -0.05545157073 0)
(12.59094021 -0.05485763609 0)
(12.62311509 -0.05426026873 0)
(12.65358262 -0.05366391909 0)
(12.6824334 -0.05306142097 0)
(12.70975322 -0.05245699595 0)
(12.73562332 -0.05184892637 0)
(12.76012063 -0.05122951515 0)
(12.78331799 -0.05060222627 0)
(12.80528437 -0.04996513751 0)
(12.82608511 -0.04931274834 0)
(12.84578206 -0.0486351227 0)
(12.86443379 -0.04793373078 0)
(12.88209575 -0.04720178327 0)
(12.89882048 -0.04643192166 0)
(12.91465771 -0.04561446549 0)
(12.92965454 -0.04474001882 0)
(12.94385555 -0.04379548245 0)
(12.95730297 -0.04276819444 0)
(12.97003681 -0.04164524225 0)
(12.98209492 -0.04041275222 0)
(12.99351316 -0.03906095846 0)
(13.00432548 -0.03755260281 0)
(13.01456404 -0.03584908577 0)
(13.02425929 -0.03397704298 0)
(13.03344006 -0.0319460173 0)
(13.04213364 -0.02974694918 0)
(13.05036589 -0.02725102619 0)
(13.0581613 -0.02463556113 0)
(13.06554303 -0.02190602467 0)
(13.07253305 -0.01891719129 0)
(13.07915214 -0.01595693972 0)
(13.08541998 -0.0128963168 0)
(13.09135522 -0.009893216098 0)
(13.0969755 -0.006938630762 0)
(13.10229753 -0.004082814217 0)
(13.10733715 -0.001335929283 0)
(0.4668795706 -0.1031217468 0)
(1.067412673 -0.1029297173 0)
(1.697048464 -0.1025789783 0)
(2.301636279 -0.1021182738 0)
(2.876839948 -0.1015822796 0)
(3.42270837 -0.1010023844 0)
(3.940229658 -0.1004012732 0)
(4.430648306 -0.09979723764 0)
(4.895267912 -0.09920852149 0)
(5.335381242 -0.09865303997 0)
(5.752242541 -0.09815905685 0)
(6.147056225 -0.09777237507 0)
(6.520972681 -0.09736870599 0)
(6.875087364 -0.09641700218 0)
(7.210441543 -0.09536592917 0)
(7.528023858 -0.09441971061 0)
(7.828772284 -0.0935475505 0)
(8.113576286 -0.09271390585 0)
(8.383279034 -0.09190143897 0)
(8.638679617 -0.09110108631 0)
(8.880535213 -0.09030894303 0)
(9.109563185 -0.0895220993 0)
(9.326443115 -0.08874060437 0)
(9.531818739 -0.08796217556 0)
(9.726299804 -0.08718840582 0)
(9.910463832 -0.08641737026 0)
(10.08485781 -0.08564987558 0)
(10.24999977 -0.08488667282 0)
(10.40638034 -0.08412553471 0)
(10.55446417 -0.08336843144 0)
(10.69469128 -0.08261484239 0)
(10.82747839 -0.08186365636 0)
(10.95322015 -0.08111626568 0)
(11.07229026 -0.08037179178 0)
(11.18504264 -0.0796310754 0)
(11.29181244 -0.07889368438 0)
(11.39291703 -0.07815902426 0)
(11.48865697 -0.07742703757 0)
(11.57931686 -0.076698218 0)
(11.66516622 -0.07597229057 0)
(11.74646029 -0.0752494318 0)
(11.82344073 -0.07452943869 0)
(11.89633642 -0.0738124154 0)
(11.96536409 -0.07309799747 0)
(12.03072897 -0.07238632325 0)
(12.09262539 -0.07167604697 0)
(12.1512374 -0.07096862742 0)
(12.20673926 -0.07026368642 0)
(12.259296 -0.06956160933 0)
(12.30906389 -0.06886151739 0)
(12.35619091 -0.06816175639 0)
(12.40081718 -0.06746489868 0)
(12.44307541 -0.06676966975 0)
(12.48309123 -0.06607377101 0)
(12.52098365 -0.06538171388 0)
(12.55686533 -0.06468586755 0)
(12.59084297 -0.06399302554 0)
(12.6230176 -0.06329617916 0)
(12.65348489 -0.06260052 0)
(12.68233545 -0.06189768844 0)
(12.70965506 -0.06119260911 0)
(12.73552496 -0.06048327828 0)
(12.76002208 -0.0597607171 0)
(12.78321926 -0.05902896642 0)
(12.80518547 -0.05828578387 0)
(12.82598605 -0.05752475296 0)
(12.84568285 -0.05673428298 0)
(12.86433443 -0.05591608893 0)
(12.88199626 -0.05506225091 0)
(12.89872086 -0.05416418498 0)
(12.91455797 -0.05321059861 0)
(12.92955468 -0.05219053119 0)
(12.94375558 -0.05108870208 0)
(12.9572029 -0.04989034078 0)
(12.96993664 -0.04858038445 0)
(12.98199465 -0.04714264904 0)
(12.9934128 -0.04556574235 0)
(13.00422504 -0.04380620169 0)
(13.01446353 -0.04181899959 0)
(13.0241587 -0.03963520732 0)
(13.0333394 -0.03726595688 0)
(13.04203291 -0.03470068006 0)
(13.0502651 -0.03178911341 0)
(13.05806044 -0.02873809746 0)
(13.06544212 -0.02555401392 0)
(13.07243209 -0.02206745299 0)
(13.07905113 -0.01861423356 0)
(13.08531892 -0.01504392805 0)
(13.09125411 -0.01154072387 0)
(13.09687434 -0.008094114279 0)
(13.10219634 -0.004762721347 0)
(13.10723591 -0.001558400304 0)
(0.4668756761 -0.119021576 0)
(1.067403769 -0.1187999385 0)
(1.697034308 -0.1183951208 0)
(2.301617079 -0.1178633826 0)
(2.876815951 -0.1172447461 0)
(3.422679819 -0.1165754397 0)
(3.94019679 -0.1158816462 0)
(4.430611347 -0.1151844774 0)
(4.895227077 -0.11450499 0)
(5.335336736 -0.1138638616 0)
(5.752194557 -0.1132937136 0)
(6.147004948 -0.1128474113 0)
(6.520918285 -0.1123815025 0)
(6.875030014 -0.1112830602 0)
(7.210381396 -0.1100699275 0)
(7.527961062 -0.1089778162 0)
(7.828706979 -0.1079711821 0)
(8.113508605 -0.1070090019 0)
(8.383209103 -0.1060712648 0)
(8.638607556 -0.1051475097 0)
(8.880461134 -0.1042332298 0)